#------------------------------------------------------------------------------
#$Date: 2019-03-14 05:33:07 +0200 (Thu, 14 Mar 2019) $
#$Revision: 214119 $
#$URL: file:///home/coder/svn-repositories/cod/cif/2/10/83/2108369.cif $
#------------------------------------------------------------------------------
#
# This file is available in the Crystallography Open Database (COD),
# http://www.crystallography.net/. The original data for this entry
# were provided by IUCr Journals, http://journals.iucr.org/.
#
# The file may be used within the scientific community so long as
# proper attribution is given to the journal article from which the
# data were obtained.
#
data_2108369
loop_
_publ_author_name
'Giovannelli, F.'
'Mathieu, C.'
'Fritsch, K.'
'Adil, K.'
'Goutenoire, F.'
'Habicht, K.'
'Delorme, F.'
_publ_section_title
;
 Room-temperature synthesis of a new stable (N~2~H~4~)WO~3~ compound: a
 route for hydrazine trapping
;
_journal_coeditor_code           YB5016SUP1
_journal_issue                   2
_journal_name_full               'Acta Crystallographica Section B'
_journal_page_first
;
;
_journal_paper_doi               10.1107/S2052520619000064
_journal_volume                  75
_journal_year                    2019
_chemical_formula_structural     'W O3 N2 H4'
_chemical_formula_sum            'H4 N2 O3 W'
_chemical_formula_weight         263.88
_chemical_name_systematic        N2H4WO3
_space_group_IT_number           154
_symmetry_cell_setting           trigonal
_symmetry_space_group_name_Hall  'P 32 2"'
_symmetry_space_group_name_H-M   'P 32 2 1'
_cell_angle_alpha                90.00000
_cell_angle_beta                 90.00000
_cell_angle_gamma                120.00000
_cell_formula_units_Z            3
_cell_length_a                   5.79842(12)
_cell_length_b                   5.79842(12)
_cell_length_c                   9.2341(3)
_cell_measurement_temperature    100
_cell_volume                     268.871(12)
_computing_structure_refinement  FULLPROF
_diffrn_ambient_temperature      100
_diffrn_measurement_device_type  'TOF diffractometer POWGEN'
_diffrn_radiation_type           neutron
_diffrn_source                   'spallation source'
_diffrn_source_type              POWGEN
_pd_calc_method                  'Rietveld Refinement'
_pd_char_colour                  white-bluish
_pd_instr_location               ' ?'
_pd_meas_2theta_fixed            90.0000
_pd_meas_2theta_range_inc        35.772491
_pd_meas_2theta_range_max        121606.53906
_pd_meas_2theta_range_min        10032.08594
_pd_meas_number_of_points        3121
_pd_meas_scan_method             tof
_pd_proc_ls_pref_orient_corr     ' ?'
_pd_proc_ls_prof_R_factor        1.8561
_pd_proc_ls_prof_wR_expected     0.7696
_pd_proc_ls_prof_wR_factor       1.4870
_pd_spec_mounting                ' 'powder in V container''
_pd_spec_shape                   cylinder
_refine_ls_goodness_of_fit_all   1.932
_refine_ls_number_parameters     70
_refine_ls_number_reflns         1763
_refine_ls_number_restraints     2
_refine_ls_R_I_factor            4.4464
_reflns_number_total             1763
_cod_data_source_file            yb5016sup1.cif
_cod_data_source_block           I
_cod_depositor_comments
;
The following automatic conversions were performed:

'_symmetry_cell_setting' value 'Trigonal' changed to 'trigonal'
according to
/home/data/users/saulius/crontab/automatic-downloads/rss-feeds/IUCr/lib/dictionaries/cif_core.dic
dictionary named 'cif_core.dic' version 2.4.2 from 2011-04-26.

Automatic conversion script
Id: cif_fix_values 4973 2017-02-22 13:04:09Z antanas 
;
_cod_original_cell_volume        268.872(11)
_cod_database_code               2108369
_pd_proc_ls_prof_cr_factor       25.3370
_pd_proc_ls_prof_cwr_factor      13.2172
_pd_proc_ls_prof_cwr_expected    6.8407
_pd_proc_ls_prof_chi2            3.7332
_pd_proc_ls_prof_echi2           3.8923
loop_
_symmetry_equiv_pos_as_xyz
x,y,z
-y,x-y,z+2/3
-x+y,-x,z+1/3
y,x,-z
x-y,-y,-z+1/3
-x,-x+y,-z+2/3
loop_
_atom_site_label
_atom_site_fract_x
_atom_site_fract_y
_atom_site_fract_z
_atom_site_U_iso_or_equiv
_atom_site_occupancy
_atom_site_adp_type
_atom_site_type_symbol
W 0.00000 0.1921(5) 0.33333 0.00222 1.00000 Uiso W
O1 0.1949(5) 0.1949(5) 0.50000 0.0100(7) 1.00000 Uiso O
O2 0.2351(5) 0.4920(6) 0.2537(2) 0.0054(4) 1.00000 Uiso O
N 0.74930(18) 0.74272(13) 0.57895(13) 0.0065(3) 1.00000 Uiso N
H1 0.6138(8) 0.7952(10) 0.6124(6) 0.0254(8) 1.00000 Uiso H
H2 0.6738(12) 0.5512(4) 0.6141(6) 0.0254(8) 1.00000 Uiso H
loop_
_atom_type_symbol
_atom_type_scat_length_neutron
_atom_type_scat_source
W 0.48600 V.F._Sears_Neutron_News_3_26_(1992)
O 0.58030 V.F._Sears_Neutron_News_3_26_(1992)
N 0.93600 V.F._Sears_Neutron_News_3_26_(1992)
H -0.37390 V.F._Sears_Neutron_News_3_26_(1992)
loop_
_pd_meas_time_of_flight
_pd_meas_intensity_total
_pd_calc_intensity_total
10031.4463 113.11 133.44
10039.4727 113.91 132.64
10047.5049 118.6 133.17
10055.543 123.41 136.77
10063.5879 138.00999 141.74001
10071.6396 137.92999 142.07001
10079.6973 143.22 138.03
10087.7617 133.47 135.62
10095.832 134.2 137.35001
10103.9092 138.99001 139.96001
10111.9932 134.24001 140.78
10120.083 146.86 140.46001
10128.1797 137.3 138.98
10136.2822 142.39 138.00999
10144.3926 138.35001 138.10001
10152.5078 138.89999 139.32001
10160.6309 147.96001 141.82001
10168.7598 144.47 143.85001
10176.8955 145.35001 143
10185.0371 145.84 143.07001
10193.1855 146.31 144.91
10201.3408 150.46001 145.89999
10209.5029 150.59 144.96001
10217.6709 153.25999 146.98
10225.8447 158.19 154.17
10234.0264 168.39999 163.09
10242.2139 174.98 161.55
10250.4082 160.95 152.56
10258.6094 155.39 147.64999
10266.8164 152.33 147.71001
10275.0303 156.03 149.96001
10283.251 156.5 151.41
10291.4785 162.25 151.35001
10299.7119 159.82001 151.38
10307.9521 155.38 152.25999
10316.1992 156.42999 152.21001
10324.4521 155.48 151.75
10332.7129 160.27 150.61
10340.9795 156.27 151.06
10349.2529 155.28999 154.89
10357.5322 161.78999 160.23
10365.8193 162.17 160.33
10374.1123 160.86 157.41
10382.4121 161 157.25
10390.7188 160.25999 159.98
10399.0313 161.89999 162.64
10407.3516 161.05 163.49001
10415.6777 164.36 163.28999
10424.0107 163.98 161.84
10432.3506 160.8 159.5
10440.6973 161.75999 158.27
10449.0498 160.00999 159.62
10457.4102 157.83 161.78
10465.7764 160.44 163.17
10474.1494 162.02 164.45
10482.5293 160.36 165.74001
10490.916 165.03999 164.67999
10499.3086 156.82001 163.7
10507.709 168.38 163.77
10516.1152 163.47 163.22
10524.5293 166.03 164.25999
10532.9492 168.11 166.73
10541.376 166.58 168.41
10549.8096 168.67999 168.56
10558.25 168.02 167.41
10566.6973 166.58 167.99001
10575.1514 162.91 171.16
10583.6113 169.88 172.52
10592.0791 168.09 170.42999
10600.5527 170.87 167.07001
10609.0342 164.97 165.37
10617.5215 163.87 167.23
10626.0166 169.17 172.27
10634.5176 172.16 175.85001
10643.0254 171.50999 174.36
10651.541 171.52 170.36
10660.0625 162.98 168.58
10668.5908 167.35001 168.73
10677.126 161.89999 168.81
10685.6689 164.95 168.66
10694.2178 167.24001 170.03
10702.7734 169.67999 174.64
10711.3359 174.57001 182.03999
10719.9063 182.08 186.88
10728.4824 179.34 184.56
10737.0654 175.75 179.7
10745.6553 178.60001 177.05
10754.2529 177.13 176.75999
10762.8564 179.58 178.44
10771.4678 177.22 179.82001
10780.085 179.75 178.56
10788.71 177.05 175.55
10797.3408 172.82001 174.99001
10805.9795 174.55 176.03999
10814.625 179.23 177.5
10823.2773 176.36 178.57001
10831.9365 176.62 178.57001
10840.6025 179.82001 177.94
10849.2754 176.39999 176.52
10857.9551 172.16 175.2
10866.6426 174.66 175.41
10875.3359 176.22 175.24001
10884.0371 179.28999 175.59
10892.7441 174.14999 177.05
10901.459 172.06 176.89999
10910.1807 177.83 177.12
10918.9092 175.35001 179.02
10927.6455 183.52 180.48
10936.3877 180.60001 180.74001
10945.1377 176.64 180.81
10953.8936 180.75999 183.08
10962.6572 181.88 186.22
10971.4287 182.34 186.7
10980.2061 183.34 186.64
10988.9902 184.78999 183.27
10997.7822 176.95 179.19
11006.5811 180.06 177.77
11015.3867 178.92999 179.38
11024.1992 182.96001 183.95
11033.0195 184.71001 188.17
11041.8467 183.69 185.71001
11050.6807 181.14999 181.03
11059.5215 179.39 179.10001
11068.3701 183.2 179.64999
11077.2246 181.42 181.44
11086.0869 182.08 183.38
11094.9561 183.83 184.53999
11103.833 184.91 183.87
11112.7168 184.5 182.77
11121.6074 185.12 183.3
11130.5049 186.75999 186.53999
11139.4102 188.63 190.36
11148.3223 199.38 191.62
11157.2412 193.99001 191.60001
11166.168 196 192.42999
11175.1006 195.56 194.25999
11184.042 198.39 192.62
11192.9893 198.00999 189.48
11201.9443 193.61 187.52
11210.9063 192.33 188.77
11219.875 194.00999 194.13
11228.8516 201.49001 200.3
11237.8359 205.32001 204.69
11246.8262 207.78 204.97
11255.8242 202.25999 197.58
11264.8291 197.89999 191.78
11273.8418 195.47 189.39999
11282.8613 191.92 188.11
11291.8877 191.46001 187.52
11300.9219 186.83 187.92
11309.9639 192.17999 189.58
11319.0117 192.64 191.55
11328.0674 192.03 192.03
11337.1309 190.41 193.17999
11346.2012 195.28 195.14999
11355.2783 199.50999 195.92
11364.3633 194.78 193.89
11373.4551 198.17999 192.24001
11382.5547 192.82001 193.89
11391.6611 195.06 198.28999
11400.7744 200.05 201.14
11409.8955 200.77 202.3
11419.0244 208.23 205.3
11428.1602 209.14999 206.19
11437.3027 209.86 203.25999
11446.4531 209.23 202.52
11455.6113 208.72 203.48
11464.7764 203.47 202.05
11473.9482 200.75 200.86
11483.1279 203.42 201.39999
11492.3154 200.23 201.34
11501.5098 201.49001 201.14
11510.7109 200.53 202.78999
11519.9199 201.97 203.42
11529.1367 201.85001 201.14999
11538.3604 197.8 198.00999
11547.5918 196.06 195.97
11556.8301 193.21001 195.42
11566.0762 193.2 196.2
11575.3301 192.88 198.53
11584.5908 195.2 201.59
11593.8584 194.67999 202.14
11603.1338 198.72 200.3
11612.417 195.92999 199.92999
11621.708 198.16 202.86
11631.0059 204.39999 208.44
11640.3105 206.00999 211.84
11649.624 206.27 212.89
11658.9434 209.84 211.61
11668.2715 205.38 206.88
11677.6064 206.16 203.63
11686.9492 200.60001 203.49001
11696.2988 203.61 204.67999
11705.6572 202.47 206.19
11715.0215 206.41 210.2
11724.3945 214.50999 215.31
11733.7744 218.36 217.14
11743.1621 216.8 216.22
11752.5566 216.42999 216.27
11761.96 213.98 215.3
11771.3701 210 211.91
11780.7871 211.17999 209.97
11790.2119 206.89999 208.81
11799.6455 206.67999 209.12
11809.085 210.88 211.58
11818.5332 215.77 214.16
11827.9883 211.13 214.73
11837.4512 212.83 214
11846.9219 215.24001 218.57001
11856.3994 232.05 228.06
11865.8857 238.8 232.39999
11875.3789 230.34 227.92
11884.8799 230.55 224.33
11894.3877 224.64 221.94
11903.9043 224.97 225.53999
11913.4277 225.45 230.77
11922.959 221.2 224.60001
11932.498 215.34 214.03999
11942.0439 210.42999 208.3
11951.5986 205.92999 206.92
11961.1602 205.07001 208.33
11970.7295 207.34 211.57001
11980.3066 213.03999 213.64999
11989.8916 210.66 212.95
11999.4834 211.03999 212.05
12009.084 210.84 215.08
12018.6914 216.92 219.85001
12028.3076 220.53 220.42
12037.9307 218.94 217.98
12047.5615 216.5 213.52
12057.2002 210.7 210.27
12066.8457 208.84 208.69
12076.5 208.58 209.11
12086.1621 212.39999 212.32001
12095.8311 218.60001 217.48
12105.5088 217.35001 219
12115.1934 217.5 216.50999
12124.8857 216.36 213.82001
12134.5859 211.8 212.27
12144.2949 215.09 213.69
12154.0107 219.14999 217.31
12163.7344 225.27 220.37
12173.4658 233.06 225.08
12183.2051 237 229.8
12192.9521 235.8 229.96001
12202.707 233.21001 226.44
12212.4697 229.32001 224.73
12222.2402 228.05 229.31
12232.0186 235.03999 233.64
12241.8047 238.03 236.25
12251.5986 239.75 237.49001
12261.4004 234.62 230.28
12271.21 229.07001 222.39
12281.0273 226.33 219.66
12290.8525 225.31 219.16
12300.6855 223.53 220.42999
12310.5273 225.07001 223.10001
12320.376 226.21001 223.03
12330.2324 224.55 222.47
12340.0977 228.25999 226.28999
12349.9697 231.59 229.35001
12359.8506 228.86 225.86
12369.7393 225.35001 223.08
12379.6348 227.22 223.53
12389.5391 231.17 225.94
12399.4512 231.64 227.34
12409.3721 230.37 229.67999
12419.2998 227.42999 228.85001
12429.2354 222.05 223.86
12439.1797 219.39 221.81
12449.1318 222.86 221.66
12459.0908 220.89999 219.84
12469.0586 217.11 217.98
12479.0352 217.7 217.00999
12489.0186 216.60001 217.3
12499.0098 219.17 218.64999
12509.0098 220.56 219.50999
12519.0176 218.28 219.35001
12529.0332 219.50999 219.99001
12539.0566 221.47 222.78999
12549.0889 227.49001 227.42
12559.1289 226.63 229.00999
12569.1768 229.98 227.33
12579.2324 229.22 226.39999
12589.2959 229.83 228.87
12599.3682 233.72 233.48
12609.4482 234.03 234.11
12619.5361 233.14999 231.56
12629.6328 229.97 227
12639.7363 226.32001 224.42
12649.8486 224.24001 223.38
12659.9697 223.83 223.50999
12670.0977 229.69 226.84
12680.2344 227.25 230.98
12690.3789 228.78 230.16
12700.5322 225.36 228.39
12710.6924 229.13 229.2
12720.8623 231.81 230.86
12731.0391 232.67 232.57001
12741.2246 231.32001 232.62
12751.418 231.48 234.84
12761.6191 229.42999 238.3
12771.8291 234.02 239.64999
12782.0469 236.50999 238.67999
12792.2734 235.89 235.39999
12802.5078 231.03 230.17
12812.75 230.39 227.85001
12823.001 231.92999 231.57001
12833.2598 235.08 240.14
12843.5273 242.55 245.06
12853.8027 244.49001 245.22
12864.0859 248.25 245.11
12874.3779 243.86 240.58
12884.6777 236.07001 234.44
12894.9863 232.57001 231.42999
12905.3027 232.21001 232.53999
12915.627 233.35001 234.59
12925.96 232.2 234.09
12936.3018 231.28 230.03999
12946.6514 228.97 227.67
12957.0088 230.8 229.57001
12967.375 232.69 237.02
12977.749 247.28 245.57001
12988.1318 246.17999 243.92
12998.5234 238.78999 237.96001
13008.9229 234.47 235.77
13019.3301 231.23 234.57001
13029.7461 230.91 234.45
13040.1709 232.36 234.61
13050.6035 232.89999 233.16
13061.0439 228.28999 231.53999
13071.4932 229.49001 231.25
13081.9512 231.46001 233.34
13092.417 236.41 238.25999
13102.8916 243.55 246
13113.375 255.02 257.57001
13123.8662 257.59 261.98001
13134.3652 250.25999 251.10001
13144.873 239.37 240.81
13155.3896 240.21001 237.8
13165.915 236.44 236.92999
13176.4482 234.82001 234.14
13186.9893 231.27 234.03
13197.54 238.87 240.31
13208.0977 245.10001 250.78
13218.665 246.92999 253.06
13229.2402 245.53 245.74001
13239.8242 240.86 240.36
13250.417 237.35001 237.28
13261.0176 232.78999 236.66
13271.627 234.12 238.75
13282.2451 233.8 238.89999
13292.8711 236.64 236.3
13303.5059 234.37 232.75
13314.1494 228.56 230.03999
13324.8008 227.23 228.25999
13335.4619 224.39999 227.64999
13346.1299 224.53999 228.19
13356.8076 226.23 230.23
13367.4941 230.3 234.13
13378.1885 234.35001 238.78999
13388.8916 237.32001 240.64999
13399.6025 239.83 240.67999
13410.3232 235.31 240.34
13421.0518 238.03999 237.56
13431.7891 236.33 236.92
13442.5352 238.10001 243.00999
13453.29 245.27 254.41
13464.0527 252.44 257.59
13474.8242 246.78999 248.78999
13485.6045 244.36 242.42999
13496.3936 242.59 241.2
13507.1914 242.55 240.41
13517.998 238.45 238.16
13528.8125 234.5 235.08
13539.6367 230.06 234.35001
13550.4688 234.91 236.00999
13561.3096 237.75 237.63
13572.1592 239.7 240.2
13583.0176 242.82001 243.78999
13593.8838 241.2 242.45
13604.7598 234.61 237.24001
13615.6445 232.87 233.55
13626.5371 230.67999 232.75999
13637.4385 230.44 234.28
13648.3496 232.07001 236.62
13659.2686 231.84 237.09
13670.1963 237.2 236.89
13681.1328 236.71001 237.32001
13692.0781 237.67999 237.42
13703.0322 234.14 236.60001
13713.9961 237.99001 236.23
13724.9678 237.97 237.64
13735.9482 245.92 241.86
13746.9375 252.05 249.41
13757.9355 257.94 254.85001
13768.9424 257.62 252.84
13779.958 256.70001 251.28
13790.9824 256.92001 250.39
13802.0156 254.27 247.3
13813.0576 252.71001 245.8
13824.1084 251.14999 246.25
13835.168 250.92 248.12
13846.2373 256.69 253.49001
13857.3145 263.01001 255.47
13868.4004 254.53 250.62
13879.4961 251.19 247.92999
13890.6006 254.55 252.17999
13901.7129 255.42999 258.62
13912.835 256.07999 254.92999
13923.9658 244.72 245.71001
13935.1055 238.84 240.10001
13946.2539 241.75999 238.75
13957.4121 240.67999 240.2
13968.5781 244.87 244.32001
13979.7539 253.45 250.39999
13990.9375 253.45 252.27
14002.1309 249.21001 247.89
14013.333 241.31 242.50999
14024.5449 238.87 239.78
14035.7646 237.86 239.75
14046.9941 239.77 240.73
14058.2314 242.28999 241.77
14069.4785 239.05 241.92
14080.7354 242.82001 240.47
14092 239.28999 239.53
14103.2744 243.39999 240.61
14114.5576 246.17999 244.35001
14125.8496 248.8 249.23
14137.1504 252.32001 251.10001
14148.4609 250.88 252.41
14159.7803 257.14001 256.81
14171.1084 265.29001 263
14182.4463 267.54001 266.79999
14193.792 269.07999 269.89999
14205.1484 267.95999 268.72
14216.5127 263.69 265.85001
14227.8867 269.29001 263.19
14239.2695 264.76001 258.47
14250.6611 261.57999 254.44
14262.0625 258.66 252.7
14273.4727 257.89001 255.28999
14284.8916 262.56 259.14001
14296.3203 257.25 257.54999
14307.7578 249.81 254.02
14319.2041 249.89 251.34
14330.6602 247.98 248.87
14342.125 246.63 247.11
14353.5996 247.48 248.08
14365.083 253.09 253.09
14376.5752 262.35999 261.04001
14388.0771 265.48999 268.95001
14399.5879 269.87 276.54999
14411.1084 275.85999 275.25
14422.6377 269.60001 268.19
14434.1768 266.82001 265.17999
14445.7246 260.72 264.54001
14457.2813 260.98999 261.81
14468.8477 264.07001 260.73001
14480.4229 269.98001 262.37
14492.0078 267.67999 260.79999
14503.6025 265.42999 260.85999
14515.2051 266.25 265.57999
14526.8184 266 265.48001
14538.4404 259.10001 258.29999
14550.0713 252.66 252.66
14561.7119 249.59 250.81
14573.3623 249.46001 249.52
14585.0215 245.48 247.28
14596.6895 243.67999 245.7
14608.3672 240.61 245.2
14620.0547 239.46001 245.39999
14631.751 243.33 246.21001
14643.457 245.77 248.14
14655.1729 250.75 252.73
14666.8975 264.53 261.35001
14678.6309 267.75 269.97
14690.375 274.82999 272.62
14702.127 277.35999 275.82001
14713.8896 277.76001 277.03
14725.6611 269.95999 269.04001
14737.4424 263.04999 261.98999
14749.2324 261.09 262.57999
14761.0322 262.82999 268.62
14772.8418 271.67999 274.69
14784.6611 285.82999 287.95001
14796.4893 314.98999 317.37
14808.3271 332.20001 340.5
14820.1738 318.22 324.25
14832.0303 295.59 291.32001
14843.8965 277.48001 271.63
14855.7725 270 266.37
14867.6572 266.42001 264.53
14879.5518 258.60999 260.28
14891.4561 259 257.01999
14903.3701 253.84 255.64
14915.293 255.28 256.51999
14927.2256 259.59 261.76999
14939.168 267.82001 270.76001
14951.1201 271.70999 276.16
14963.0811 270.72 274.07001
14975.0527 272.25 270.39001
14987.0332 265.79999 266.32001
14999.0234 265.57001 264.07999
15011.0225 264.85999 266.89001
15023.0322 267.73001 270.79999
15035.0508 274.26001 273.07001
15047.0791 279.04001 275.69
15059.1182 277.23001 272.56
15071.166 269.89999 265.14001
15083.2227 263.51999 260.87
15095.29 259.67999 259.92999
15107.3672 259.42999 258.12
15119.4531 256.67001 255.75
15131.5488 254.58 255.63
15143.6553 259.04999 258.91
15155.7705 262.42999 263.64999
15167.8955 265.91 263.57001
15180.0303 258.29001 259.01001
15192.1748 254.83 255.64999
15204.3291 255.14 254.92999
15216.4932 255.45 255.92
15228.667 259.85999 257.5
15240.8506 258.06 257.39999
15253.0439 253.23 255.84
15265.2461 255.22 255.32001
15277.459 253.14999 256.92001
15289.6816 259.63 260.34
15301.9141 263.25 263.10999
15314.1563 265.64001 265.06
15326.4082 272.32001 269.5
15338.6699 277.04999 274.28
15350.9404 272.14001 272.69
15363.2227 263.73999 265.54001
15375.5137 259.64999 259.79001
15387.8145 259.04999 257.64001
15400.125 256.54999 258.62
15412.4453 258.60001 262.98999
15424.7764 266.42001 269.89999
15437.1162 273.17999 274.07999
15449.4668 277.44 275.45001
15461.8262 281.72 280.10001
15474.1963 284.95001 283.32001
15486.5762 285.10999 279.72
15498.9658 276.41 273.51001
15511.3662 268.54999 267.81
15523.7754 265.28 264.48999
15536.1953 265.01999 264.88
15548.625 264.38 265.76001
15561.0645 262.53 263.64999
15573.5137 259.14001 261.01999
15585.9727 257.64001 259.54999
15598.4424 258.48999 259.32999
15610.9209 260.98999 259.94
15623.4102 257.57001 260.48001
15635.9102 261.51001 262.04001
15648.4189 267.38 267.67001
15660.9385 281.95999 280.56
15673.4678 306.13 296.20999
15686.0068 302.28 297.48999
15698.5557 287.56 287.10001
15711.1152 285.01001 281.98001
15723.6846 278.70999 281.67001
15736.2646 278.76999 278.28
15748.8535 274.01999 276.53
15761.4531 282.38 281.41
15774.0635 292.17999 287.31
15786.6826 285.87 284.88
15799.3125 278.10001 278.26001
15811.9531 270.66 270.92999
15824.6025 265.32001 265.26001
15837.2627 261.07001 262.57999
15849.9336 262.88 262.75
15862.6133 263.20999 265.78
15875.3047 267.26999 270.48001
15888.0049 273.5 272.10999
15900.7158 267.76999 269.70001
15913.4375 270.39999 269.07001
15926.168 275.47 273.41
15938.9102 279.64001 281.95001
15951.6611 286.51999 290.20999
15964.4229 287.39001 291.57001
15977.1953 283.60999 287.45999
15989.9775 284.92999 285.70001
16002.7705 289.72 287
16015.5732 281.22 282.51999
16028.3857 273.14001 274.84
16041.209 270.20001 270.42001
16054.042 269.57999 269.85001
16066.8857 277.54001 273.64999
16079.7402 287.45999 283.42001
16092.6045 296.64999 293.54001
16105.4795 295.10001 293.09
16118.3643 288.31 286.51999
16131.2588 287.67001 286.34
16144.165 301.56 291.84
16157.0811 295.92001 289.54999
16170.0068 283.29999 279.73001
16182.9434 269.64999 272.23999
16195.8896 269.01001 269.64001
16208.8477 264.81 269.22
16221.8154 265.88 269.32001
16234.793 265.95999 269.57001
16247.7813 270.79999 269.60001
16260.7803 267.26001 270.26999
16273.7891 269.47 269.92999
16286.8086 267.14999 267.81
16299.8389 266.32999 266.20999
16312.8789 264.91 266.19
16325.9297 267.09 268.10999
16338.9912 272.78 273.60999
16352.0625 283.14999 283.70999
16365.1445 295.53 293.14001
16378.2373 293.04999 295.67999
16391.3398 296.73001 299.54999
16404.4531 304.35999 304.95001
16417.5781 299.20999 300.88
16430.7129 289.75 288.98001
16443.8574 275.85999 277.5
16457.0117 270.57999 270.64999
16470.1797 266.39999 267.64999
16483.3555 266.73999 266.66
16496.543 265.06 266.69
16509.7402 265.51999 268.04001
16522.9492 273.20001 271.94
16536.168 277.12 279.31
16549.3965 284.82999 286.39999
16562.6367 288.38 286.69
16575.8867 288.91 286.17999
16589.1484 299.85001 292.45999
16602.4199 304.06 299.32999
16615.7031 300.67001 295.38
16628.9961 286.32001 285.31
16642.3008 277.32001 277.89001
16655.6133 272.70001 273.45001
16668.9395 273.70999 270.53
16682.2754 266.81 269.17999
16695.6211 270.07001 269.5
16708.9785 270.84 271.72
16722.3457 272.35001 275.14001
16735.7246 275.73999 276.82999
16749.1133 273.19 276.38
16762.5137 277.17999 278.54001
16775.9238 287.75 287.01999
16789.3457 298.03 300.72
16802.7773 311.48999 310.69
16816.2207 307.5 306.92001
16829.6738 291.20001 292.54999
16843.1367 281.17001 280.19
16856.6133 275.94 273.95999
16870.0977 274.97 272.04999
16883.5957 271.73001 272.92001
16897.1016 274.79999 275.81
16910.6211 271.57999 278.26999
16924.1504 274.51001 277.38
16937.6895 274.12 275.10999
16951.2402 271.01999 273.09
16964.8008 271.17999 271.70001
16978.373 271.14999 271.44
16991.957 272.54001 272.88
17005.5508 273 275.54999
17019.1563 278.23999 277.42001
17032.7715 274.82999 276.92999
17046.3984 274.89001 276.29001
17060.0371 274.01999 276.35999
17073.6855 274.81 277.01999
17087.3438 277.66 279.82001
17101.0156 284.17001 284.20999
17114.6953 282.75 285.41
17128.3887 285.22 283.29999
17142.0918 282.26999 282.09
17155.8066 286.22 282.54001
17169.5313 283.32999 284.78
17183.2676 291.69 290.29999
17197.0137 306.41 302.01999
17210.7715 322.88 317.85001
17224.541 334.32999 326.01999
17238.3223 327.54001 319.03
17252.1133 306.35001 303.45999
17265.9141 294.28 293.14001
17279.7285 292.92001 291.34
17293.5527 293.64999 292.54999
17307.3887 292.92001 291.62
17321.2344 292.34 291.23001
17335.0918 295.94 294.98999
17348.9609 307.67999 306.42999
17362.8398 332.01999 331.28
17376.7305 362.91 363.38
17390.6328 373.92999 378.89001
17404.5449 356.84 359.84
17418.4707 328.41 325.01001
17432.4043 303.44 299.88
17446.3516 291.88 287.76999
17460.3086 286.79001 283.10001
17474.2773 281.17999 281.51001
17488.2578 280.79999 281.42001
17502.248 280.94 282.75
17516.252 288.19 286.95999
17530.2656 295.13 297.92999
17544.2891 320.75 321.10001
17558.3262 353.25 352.98999
17572.373 365.89001 369.44
17586.4316 350.37 354.26001
17600.5 326.26001 327.92999
17614.582 304.76999 305.98999
17628.6738 294.26999 292.07999
17642.7773 285.01001 284.89001
17656.8926 282.98001 281.60001
17671.0176 279.70001 280.04001
17685.1563 275.25 279.32999
17699.3047 277.29999 279.03
17713.4648 276.10001 279.09
17727.6348 278.92999 279.73001
17741.8184 278.89001 281.28
17756.0117 280.88 283.47
17770.2168 283.64999 284.37
17784.4336 277.98001 283.07999
17798.6621 278.82999 281.60001
17812.9004 275.87 281.07001
17827.1523 280.16 281.60999
17841.4141 282.82001 283.76001
17855.6875 287.85999 289.35999
17869.9727 302.07001 299.32999
17884.2695 314.09 308.85999
17898.5781 313.29999 309.73001
17912.8965 312.07001 308.92999
17927.2285 317.29999 316.87
17941.5703 327.09 329.38
17955.9238 332.98999 333.39999
17970.2891 332.45001 333.09
17984.666 340.37 333.26999
17999.0547 342.54999 332.01999
18013.4531 328.01001 323.37
18027.8652 311.20001 310.56
18042.2871 303.39001 302.97
18056.7227 300.95999 303.01999
18071.168 312.60001 310.78
18085.625 322.69 318.53
18100.0938 314.42999 313.69
18114.5742 301.51999 302.25
18129.0664 292.26999 295.26001
18143.5703 294.14001 294.57001
18158.0859 292.39999 294.94
18172.6133 289.70001 292.14001
18187.1523 288.34 289.10001
18201.7031 288.32001 289.32001
18216.2637 294.42001 294.16
18230.8379 301.73001 301.70001
18245.4219 304.69 304.79001
18260.0195 300.57999 301.64001
18274.6289 299.95001 299.23999
18289.248 300.45001 300.94
18303.8809 300.51001 301.98999
18318.5234 298.39999 300.16
18333.1797 299.22 300.37
18347.8457 303.87 301.67999
18362.5254 295.79999 298.35001
18377.2148 290.39001 292.81
18391.918 285.01999 289.72
18406.6328 286.57001 289.10001
18421.3574 287.31 288.34
18436.0957 285.89999 287.56
18450.8457 291.69 288.64999
18465.6055 291.70001 292.03
18480.3789 295.92001 294.48001
18495.1641 290.98001 292.76001
18509.9609 287.97 289.78
18524.7695 289.32999 289.13
18539.5898 293.45999 292.42999
18554.4219 301.14001 299.76999
18569.2656 311.10001 307.92999
18584.1211 313.95999 313.03
18598.9883 312.59 312.62
18613.8691 307.38 307.45001
18628.7598 305.92001 305.38
18643.6641 310.47 307.39001
18658.5801 307.81 305.79999
18673.5059 298.98999 298.76999
18688.4453 293.95001 292.19
18703.3965 289.73001 288.85001
18718.3613 290.04999 288.42001
18733.3359 288.04999 289.89999
18748.3223 293.01999 291.60999
18763.3223 292.20999 292.34
18778.334 295.41 294.67999
18793.3574 300.35001 302.51001
18808.3926 322.14999 314.98999
18823.4395 330.12 321.03
18838.498 313.37 313.10999
18853.5703 300.26001 301.81
18868.6523 295.66 295.57001
18883.748 295.39999 295.37
18898.8555 298.54999 298.5
18913.9746 302.17001 300.26001
18929.1074 302.26999 299.48001
18944.25 299.41 300.82001
18959.4063 306.12 306.32001
18974.5742 309.16 311.85001
18989.7559 314.19 313.76999
19004.9473 313.20999 314.14001
19020.1523 321.89999 319.98001
19035.3691 330.64001 333.81
19050.5977 345.04001 347.88
19065.8379 344 345.92001
19081.0918 321.29999 326.75
19096.3574 308.92001 307.63
19111.6348 298.28 296.53
19126.9238 292.69 291.60001
19142.2266 291.51999 289.85999
19157.541 291.31 289.78
19172.8672 291.82999 290.66
19188.2051 292.32001 291.07001
19203.5566 287.34 290.01999
19218.9199 287.95001 288.56
19234.2969 288.10999 287.60001
19249.6836 287.76001 287.20001
19265.084 287.64999 287.20999
19280.4961 286.45001 287.62
19295.9219 289.48001 288.84
19311.3594 291.92001 291.14999
19326.8086 293.35001 293.73001
19342.2715 294.25 294.12
19357.7441 292.41 292.17001
19373.2324 288.60001 290.16
19388.7305 286.98001 289.07999
19404.2422 288.60999 288.78
19419.7656 287.62 288.84
19435.3027 288.17999 289.13
19450.8516 288.73001 289.56
19466.4121 289.57001 290.17001
19481.9863 290.06 291.06
19497.5723 291.04001 292.62
19513.1699 295.17001 295.81
19528.7813 300.89001 302.73999
19544.4063 316.64999 315.92999
19560.041 339.75 334.95001
19575.6895 354.16 350.94
19591.3516 356.03 353.28
19607.0254 337.51001 338.54999
19622.7109 319.22 318.73001
19638.4102 302.88 304.92001
19654.1211 299.67001 298.10999
19669.8438 294.63 295.35001
19685.5801 292.17999 294.47
19701.3301 296.13 294.79001
19717.0918 296.19 296.59
19732.8652 297.31 300.04999
19748.6523 302.70001 303.38
19764.4512 302.45999 303.81
19780.2637 300.98001 303.53
19796.0879 307.31 306.29999
19811.9258 311.92999 310.82999
19827.7754 310.79999 310.85999
19843.6387 306.78 305.98001
19859.5137 300.20001 301.29999
19875.4023 297.42999 298.59
19891.3027 295.95001 297.42999
19907.2168 294.73999 297.42999
19923.1426 295.29999 297.84
19939.082 296.72 298.20001
19955.0332 298.85999 299.41
19970.998 301.14001 301.95999
19986.9766 305.44 304.04001
20002.9648 302.32999 303.60999
20018.9688 304.78 302.95999
20034.9844 305.31 305.23001
20051.0137 311.53 310.82999
20067.0547 317.76999 315.32999
20083.1074 317.66 314.17001
20099.1758 312.16 311.64999
20115.2559 314.32999 312.45999
20131.3477 317.60999 314.60001
20147.4531 315.95999 314.26001
20163.5723 311.47 310.82999
20179.7031 306.54999 306.10001
20195.8477 300.32999 302.72
20212.0039 298.25 301.62
20228.1758 298.67001 302.89001
20244.3574 303.51001 306.51999
20260.5547 310.01001 310.92001
20276.7637 309.39999 311.92001
20292.9844 307.5 309.47
20309.2188 304.98999 308.51999
20325.4668 308.62 313.67001
20341.7285 323.42001 327.75
20358.002 343.67999 347
20374.2891 353.67999 356.39999
20390.5898 342.5 346.92999
20406.9023 325.73001 328.10001
20423.2285 312.25 312.92999
20439.5664 307.19 305.54001
20455.9199 306.94 304.20001
20472.2852 307.32999 305.17001
20488.6621 306.26001 304.92999
20505.0547 307.07001 303.79999
20521.459 304.23001 303.32999
20537.877 303.10999 302.14999
20554.3066 300.76001 298.89999
20570.752 298.09 295.29999
20587.209 292.70999 292.79001
20603.6797 294.22 291.37
20620.1621 292.63 290.53
20636.6582 289.51001 290.01999
20653.168 291.01001 289.67001
20669.6914 292.56 289.44
20686.2285 292.59 289.35999
20702.7773 291.38 289.5
20719.3398 290.95001 290.01999
20735.916 295.79001 291.54001
20752.5059 299.28 295.31
20769.1074 310.34 304.26001
20785.7246 326.48001 320.67001
20802.3535 350.57001 342.60001
20818.9961 363.56 359.16
20835.6504 354.56 353.03
20852.3203 328.94 329.70001
20869.002 310.87 308.34
20885.6992 300.53 296
20902.4082 292.45999 290.51001
20919.1289 291.53 288.75
20935.8652 292.64001 289.84
20952.6152 295.19 294.95999
20969.377 305.29999 304.34
20986.1543 312.97 312.13
21002.9434 306.45001 309.17001
21019.7461 294.04001 298.95999
21036.5625 287.89001 289.89001
21053.3926 281.57001 284.62
21070.2344 279.60001 282.23999
21087.0918 282.26999 281.01999
21103.9609 280.67001 280.35999
21120.8457 279.73999 280.09
21137.7422 279.09 280.48001
21154.6543 279.79001 281.07001
21171.5781 279.48001 281.95999
21188.5156 280.14999 283.35001
21205.4668 283.54001 285.81
21222.4316 285.17001 290.98001
21239.4102 297.56 302.38
21256.4023 317.95001 324.34
21273.4082 346.81 356.59
21290.4277 382.92999 390.06
21307.459 421.70999 414.13
21324.5059 409.48999 406.29001
21341.5664 360.41 368.22
21358.6406 323.51999 330.84
21375.7285 306.39999 309.34
21392.8281 298.70999 303.28
21409.9434 306.98999 307.17001
21427.0723 313.63 314.60999
21444.2148 317.38 317.70999
21461.3691 310.39001 313.38
21478.5391 300.5 303.73001
21495.7227 294.72 295.04999
21512.9199 290.82999 290.20001
21530.1309 290.20001 288.84
21547.3555 291.70001 290.19
21564.5938 298.5 295.12
21581.8457 310.45001 307.41
21599.1113 327.42999 330.64999
21616.3926 352.5 357.03
21633.6855 354.37 362.70001
21650.9922 339.39999 344.14001
21668.3145 324.81 324.48999
21685.6504 321.45999 316.01001
21702.998 321.82001 313.20001
21720.3613 311.10999 306.92001
21737.7383 300.89999 298.67999
21755.1289 297.85001 292.98001
21772.5332 294.76999 291.39001
21789.9512 297.60001 293.89999
21807.3848 303.82999 300.48001
21824.8301 313.39999 308.56
21842.291 318.79999 311.97
21859.7656 312.07999 308.07001
21877.2539 310.04999 302.85001
21894.7559 310.39999 303.13
21912.2734 321.26999 314.78
21929.8027 349.01999 344.25
21947.3477 387.39001 390
21964.9063 414.26999 423.29999
21982.4785 399.91 412.73999
22000.0645 376.5 381.94
22017.666 360.35001 362.32999
22035.2793 353.07001 353.47
22052.9082 346.97 345.07999
22070.5508 338.03 335
22088.209 324.91 321.54999
22105.8789 313.79001 309.5
22123.5645 309.98999 303.98999
22141.2637 310.07999 304.79001
22158.9785 310.31 306.32999
22176.7051 305.64001 303.17001
22194.4473 300.23001 297.76999
22212.2031 297.59 294.70999
22229.9727 298.66 296
22247.7578 302.03 300.98999
22265.5566 306.59 306.04999
22283.3691 306.56 306.73999
22301.1973 306.95999 307.12
22319.0391 314.60999 314.29001
22336.8945 329.81 328.04001
22354.7637 337.45999 335.57999
22372.6484 325.42999 326.51001
22390.5469 309.85999 310.51999
22408.4609 296.92001 298.22
22426.3867 294.04999 291.73001
22444.3281 287.10999 289.01001
22462.2852 286.29999 288.20001
22480.2559 286.88 288.82001
22498.2402 288.64999 291.45999
22516.2383 293.34 296.69
22534.252 302.57001 302.64999
22552.2813 301.32999 303.95999
22570.3223 295.75 299.42999
22588.3789 288.87 293.95001
22606.4512 286.57999 290.57001
22624.5371 285.04999 290.39999
22642.6367 287.87 293.32999
22660.752 293.67999 298.85999
22678.8809 305.04001 303.91
22697.0234 298.73001 304.26999
22715.1816 294.70001 299.60999
22733.3555 288.98999 293.88
22751.543 283.37 289.85001
22769.7441 282.26001 287.79999
22787.9609 281.73001 286.89001
22806.1914 282.48001 286.48999
22824.4355 280.23001 286.34
22842.6973 281.57001 286.28
22860.9707 280.89999 286.28
22879.2598 281.56 286.31
22897.5645 279.54999 286.37
22915.8828 281.64001 286.42001
22934.2168 281.76001 286.51999
22952.5645 283.53 286.67001
22970.9258 279.10999 286.85001
22989.3047 281.76999 287.04001
23007.6953 282.16 287.20001
23026.1016 283.09 287.45001
23044.5234 280.42999 287.75
23062.9609 283.48001 288.09
23081.4102 285.37 288.54001
23099.877 285.17001 289.23001
23118.3574 285.98999 290.42001
23136.8516 287.85999 292.35999
23155.3613 292.57001 294.67001
23173.8867 293.97 296.17001
23192.4258 295.79001 296.81
23210.9805 296.67001 299.01999
23229.5508 303.01001 306.07001
23248.1348 322.64001 320.51001
23266.7344 338.70001 340.39999
23285.3477 360.38 356.51999
23303.9766 363.54001 361.76001
23322.6191 350.79999 352.64001
23341.2793 332.88 335.51001
23359.9512 323.26001 323.32999
23378.6406 322.48999 320.04999
23397.3438 318.73001 319.54999
23416.0625 315.79999 315.89001
23434.7949 314.56 310.39999
23453.5449 308.56 304.87
23472.3066 304.39001 299.87
23491.0859 302.09 296.28
23509.8789 299.19 294.23001
23528.6875 299.44 293.23001
23547.5117 297.48001 292.81
23566.3496 300.89999 292.67001
23585.2031 300.20999 292.72
23604.0723 298.42999 293
23622.9551 301.5 293.73999
23641.8535 299.31 295.23999
23660.7676 304.42999 297.38
23679.6973 307.22 298.89001
23698.6426 304.91 298.39999
23717.6016 305.01001 296.76001
23736.5762 302.79001 295.48001
23755.5664 302.54999 295.20999
23774.5703 305.56 296.17001
23793.5898 308.60999 298.54999
23812.627 307.48999 301.41
23831.6758 311.48001 302.69
23850.7422 309.35999 301.29999
23869.8242 307.60999 299.04999
23888.9199 308.48999 297.51999
23908.0313 309.35001 297.12
23927.1582 310.37 297.37
23946.3008 310.82999 298.14001
23965.459 309.22 299.5
23984.6309 315.85999 302.34
24003.8203 318.07001 309.03
24023.0234 333.14999 324.39999
24042.2422 360.87 351.87
24061.4766 393.42001 383.35001
24080.7266 399.60999 393.35999
24099.9902 372.26001 372.35999
24119.2715 342.54999 342.34
24138.5684 327.57999 320.57999
24157.8789 315.62 309.69
24177.2051 314.53 305.87
24196.5488 310.29001 305.35999
24215.9063 309.73001 305.34
24235.2793 308.03 304.22
24254.668 310.23001 302.64999
24274.0723 304.70001 301.62
24293.4922 304.63 301.56
24312.9277 305.17001 302.59
24332.377 307.35001 304.69
24351.8438 309.69 307.48001
24371.3262 315 310.41
24390.8242 318.14999 315.47
24410.3379 333.37 327.76001
24429.8652 350.53 349.38
24449.4102 377.01999 371.94
24468.9707 370.03 375.92001
24488.5469 354.07999 360.10001
24508.1367 339.39999 344.48001
24527.7441 343.51999 343.10999
24547.3672 357.63 356.09
24567.0059 375.53 368.67001
24586.6602 365.60999 362.92001
24606.3301 335.54999 343.39999
24626.0156 317.97 324.89001
24645.7168 307.92001 313.60999
24665.4336 302.34 308.57999
24685.166 299.5 307.39001
24704.9141 304.28 308.75
24724.6797 306.29999 311.29999
24744.459 308.85999 312.73001
24764.2559 305.45999 311.20001
24784.0684 304.06 308.26001
24803.8945 298.39999 305.78
24823.7383 300.95999 304.64001
24843.5977 299.51001 304.51999
24863.4746 299.64999 305.37
24883.3652 300.17999 306.64999
24903.2715 302.81 307.70001
24923.1953 303.44 308.01001
24943.1348 302.47 308.03
24963.0898 302.69 308.42001
24983.0605 301.01001 309.54001
25003.0469 304.54001 311.84
25023.0508 311.26999 317.07001
25043.0703 323.26001 328.79001
25063.1035 342.17999 352.54001
25083.1563 377.95999 388.04999
25103.2227 406.92001 417.45001
25123.3047 394.92001 414.04999
25143.4043 367.13 384.73001
25163.5195 345.26001 356.45001
25183.6504 340 343.53
25203.7988 346.45001 346.39999
25223.9629 354.56 357.14001
25244.1426 360.12 361.34
25264.3379 349.32999 352.20001
25284.5488 329 338.75
25304.7773 322.16 329.5
25325.0215 325.35001 328.10999
25345.2832 330.26001 335.91
25365.5586 349.25 353.29999
25385.8516 373.48999 374.23001
25406.1621 379.85001 382.17001
25426.4863 366.17999 369.25
25446.8281 344.88 348.89999
25467.1875 328.91 333.37
25487.5605 320.07999 325.29001
25507.9512 319.97 322.70999
25528.3594 323.78 323.64999
25548.7813 323.04001 327.09
25569.2207 329.54001 331.26001
25589.6777 325.82001 332.92999
25610.1484 334.54999 331.32999
25630.6387 330.60001 329.73999
25651.1426 331.94 331.10001
25671.6641 337.01001 339.22
25692.2031 361.13 359.5
25712.7559 396.64999 395.28
25733.3281 434.92001 436.48999
25753.9141 445.76001 453.94
25774.5176 428.98001 436.04999
25795.1387 408.48001 406.64999
25815.7754 388.28 381.64999
25836.4277 368.41 361.45001
25857.0977 349.32999 346.42001
25877.7832 344.98001 337.12
25898.4863 337.92001 333.12
25919.2051 338.22 333.45999
25939.9414 343.72 339.16
25960.6934 360.47 353.19
25981.4629 382.48001 376.31
26002.248 413.28 399.12
26023.0508 412.89999 402.39999
26043.8711 390.60999 383.67999
26064.7051 367.04999 360.29001
26085.5586 348.66 343.75
26106.4277 343.34 335.26001
26127.3125 338.62 331.81
26148.2148 337.62 330.97
26169.1348 336.44 331.35999
26190.0703 342.16 333.35999
26211.0234 344.76001 337.22
26231.9922 349.69 341.82001
26252.9785 356.12 345.06
26273.9805 356.72 346.98001
26295 361.94 353.04999
26316.0371 378.66 370.13
26337.0898 407.89001 399.92999
26358.1602 430.42001 429.45999
26379.248 433.14999 433.26001
26400.3516 407.39999 408.37
26421.4727 380.22 377.32999
26442.6094 356.17999 355.20001
26463.7637 349.56 343.59
26484.9355 335.92999 338.51999
26506.125 335.88 336.42999
26527.3301 331.31 335.54001
26548.5527 334.25 335.01999
26569.791 332.62 334.94
26591.0488 326.45001 335.04999
26612.3223 327.19 334.76999
26633.6113 325.48001 334.20999
26654.9199 325.70001 333.75
26676.2441 324.20001 333.39001
26697.5859 322.35001 333.14999
26718.9434 323.10001 333.03
26740.3203 325.48001 333.09
26761.7129 322.85001 333.39999
26783.123 328.88 334.09
26804.5488 326.89999 335.54001
26825.9941 330.51001 338.73999
26847.4551 342.79999 346.66
26868.9336 362.76999 363.82999
26890.4277 395.94 393.59
26911.9414 435.82999 430.92999
26933.4707 458.72 459.04999
26955.0195 472.32001 471.91
26976.584 476.04001 478.17001
26998.166 468.45999 468.42999
27019.7637 437.92999 436.13
27041.3809 406.53 401.85001
27063.0137 392.66 384.38
27084.666 390.12 385.64001
27106.334 394.01999 391.67001
27128.0195 388.44 384.75
27149.7227 367.79999 365.70001
27171.4414 347.98001 346.51999
27193.1797 336.67001 333.47
27214.9355 329.47 326.34
27236.707 323.84 322.64001
27258.498 319.13 320.54001
27280.3047 322.70999 319.07999
27302.1289 320.17001 317.97
27323.9707 318.51999 317.07999
27345.832 321.39999 316.28
27367.709 317.12 315.48001
27389.6035 321.85999 314.64001
27411.5156 323.72 313.85001
27433.4453 321.09 313.39999
27455.3926 323.47 313.81
27477.3574 317.60001 314.29001
27499.3398 319.06 314.82001
27521.3398 324.29999 315.89001
27543.3574 319.62 316.59
27565.3926 317.23999 317.39001
27587.4453 318.26999 318.42001
27609.5156 323.69 319.97
27631.6035 325.84 322.92001
27653.709 329.35001 328.79001
27675.832 338.81 338.82999
27697.9746 345.89001 351.23001
27720.1328 351.01999 358.64999
27742.3105 351.85001 354.84
27764.5039 342.67999 344.48001
27786.7168 332.98001 335.26999
27808.9453 325.75 330.10999
27831.1934 324.98001 327.98001
27853.459 331.13 327.95001
27875.7422 327.28 329.17999
27898.043 331.72 332.07001
27920.3633 335.32001 338.51999
27942.6992 349.73999 351.72
27965.0547 370.06 373.39001
27987.4258 397.22 397.87
28009.8164 408.54999 409.79999
28032.2246 401.92999 402.20999
28054.6523 388.85001 387.95999
28077.0957 383.01999 377.26001
28099.5586 370.92001 368.42999
28122.0391 360.73999 359.04001
28144.5371 346.38 351.28
28167.0527 340.54999 347.12
28189.5859 335.07999 346.73001
28212.1387 339.54999 349.98999
28234.709 343.51001 358.92999
28257.2969 363.44 380.73999
28279.9043 408.73001 428.26001
28302.5273 511.45999 510.42001
28325.1699 622.02002 609.21997
28347.832 680.35999 661.96997
28370.5098 620.71002 620.90002
28393.207 514.83002 528.53003
28415.9219 429.66 445.32001
28438.6563 387.57999 393.95999
28461.4063 360.51999 369.14999
28484.1758 352.84 358.88
28506.9648 345.76001 355.20001
28529.7695 345.75 355.20999
28552.5938 352.54999 359.60999
28575.4375 362.70001 371.98001
28598.2988 392.57001 396.44
28621.1777 431.60999 431.09
28644.0742 456.5 459.17001
28666.9902 450.76001 457.42999
28689.9238 425.26001 430.29001
28712.877 394.70999 402.31
28735.8477 391.48001 389.79001
28758.8379 403.89999 396.35001
28781.8438 423.60999 415.45001
28804.8711 441.42001 430.28
28827.9141 425.38 424.04999
28850.9785 403.70999 401.92999
28874.0586 386.57001 379.45999
28897.1582 365.20001 364.37
28920.2773 359.87 356.67999
28943.4141 356.79001 353.32001
28966.5684 349.54001 351.94
28989.7422 348.66 351.47
29012.9355 349.59 351.26999
29036.1465 353.32999 351.26999
29059.375 351.29001 351.39999
29082.623 346.91 351.62
29105.8906 345.64001 351.91
29129.1758 350.81 352.23999
29152.4785 351.54999 352.62
29175.8008 346.97 353.03
29199.1426 349.62 353.54001
29222.502 347.48999 353.39001
29245.8809 354.89999 352.60001
29269.2793 351.82999 352.25
29292.6953 351.28 351.92999
29316.1289 351.79999 351.63
29339.582 353.85001 351.35001
29363.0547 347.67001 351.10999
29386.5449 352.70999 350.91
29410.0547 358.20001 350.76999
29433.584 354.17999 350.72
29457.1309 356.07001 350.79999
29480.6973 356.95999 351.19
29504.2832 359.42999 352.38
29527.8867 362.03 355.48999
29551.5098 371.89001 362.14999
29575.1504 386.23999 373
29598.8125 400.56 385.42001
29622.4902 403.04001 391.42999
29646.1895 401.42999 385.89999
29669.9063 379.26999 373.94
29693.6445 371.62 362.92999
29717.3984 370.04999 356.14999
29741.1738 365.88 353.41
29764.9668 361.67001 354.06
29788.7793 368.22 359.07999
29812.6113 382.35001 371.48999
29836.4609 405.45001 393.76001
29860.332 431.70999 421.85001
29884.2207 442.13 439.82001
29908.127 430.67001 431.89999
29932.0547 405.44 406.12
29956.002 388.85001 380.35001
29979.9668 369.91 363.57999
30003.9512 359.39001 356.51001
30027.9551 357.22 357.38
30051.9766 364.32999 364.97
30076.0195 366.34 376.89999
30100.0801 379.16 386.26001
30124.1621 378.23999 384.53
30148.2617 366.17001 372.73999
30172.3809 353.85001 359.44
30196.5195 349.81 349.76001
30220.6758 337.01001 344.26999
30244.8535 344.38 341.51001
30269.0508 337.26001 340.29001
30293.2656 337.20001 339.42999
30317.5 332.26999 338.82001
30341.7559 330.10999 338.38
30366.0293 332.63 338.22
30390.3223 334.64999 338.17999
30414.6348 334.14999 338.29001
30438.9668 335.01001 338.62
30463.3184 330.01001 339.41
30487.6914 341.87 341.28
30512.082 343.06 345.48001
30536.4922 355.48999 353.45999
30560.9219 366.22 365.42001
30585.3711 379.64001 378.29001
30609.8398 389.70001 387.22
30634.3281 399.88 393.42001
30658.8359 401.59 402.32999
30683.3633 408.07999 410.5
30707.9102 407.42999 406.22
30732.4766 381.39999 388.48001
30757.0645 368.76001 368.16
30781.6699 351.89999 353.09
30806.2949 337.45999 344.60001
30830.9414 339.67999 340.67999
30855.6055 338.79999 339.01001
30880.291 339.01999 338.59
30904.9961 341.23001 338.87
30929.7207 336.89999 339.87
30954.4648 336.59 342.22
30979.2285 344.85001 347.76999
31004.0137 353.79001 360.35999
31028.8164 377.70001 384.73001
31053.6406 420.60999 421.41
31078.4844 468.81 458.97
31103.3477 479.17001 474.54999
31128.2305 462.92001 463.25
31153.1328 448.23001 450.76999
31178.0566 460.03 459.82001
31203 491.89999 487.70999
31227.9629 502.26999 504.53
31252.9453 473.64999 483.42999
31277.9473 425.91 437.32001
31302.9707 390.72 393.25
31328.0137 369.5 363.5
31353.0762 352.82001 347.73999
31378.1602 342.51999 340.63
31403.2617 345.06 337.70999
31428.3848 341.57999 336.39999
31453.5293 339.89999 335.22
31478.6914 335.22 333.54001
31503.875 337 331.70999
31529.0801 332.70999 330.17001
31554.3027 333.70001 329.04001
31579.5469 332.42999 328.23999
31604.8105 330.20999 327.60999
31630.0957 329.22 327.14999
31655.4004 330.78 326.73999
31680.7246 330.57999 326.51999
31706.0703 331.70001 326.13
31731.4355 330.54999 325.85001
31756.8203 329.45001 325.60001
31782.2266 325.92999 325.38
31807.6543 330.12 325.19
31833.0996 329.78 325.01001
31858.5664 328.63 325.23001
31884.0547 332.23001 326.32001
31909.5625 325.10999 327.45001
31935.0898 331.51999 328.60999
31960.6387 330.92001 329.82001
31986.207 331.81 331.09
32011.7969 332.81 332.44
32037.4082 337.70999 333.89999
32063.0371 333.41 335.48001
32088.6895 332.84 337.23999
32114.3594 333.73001 339.26999
32140.0527 336.20001 341.63
32165.7656 343.42001 345.03
32191.498 340.51001 350.67001
32217.252 352.97 362.03
32243.0254 379.29999 385.42001
32268.8203 424.82001 427.09
32294.6367 499.17001 485.35999
32320.4727 547.08002 538.21002
32346.3301 551.28998 548.90002
32372.207 511.29999 510.10001
32398.1055 443.35001 453.70999
32424.0234 406.23001 407.60001
32449.9648 370.39001 380.01001
32475.9238 359.07001 366.94
32501.9063 353.82001 362.07001
32527.9082 349.59 360.56
32553.9297 354.78 360.79999
32579.9746 354.23001 362.54999
32606.0391 358.14001 366.94
32632.125 360.91 376.57001
32658.2305 382.89001 394.62
32684.3574 410.14001 421.23999
32710.5059 443.14001 448.39999
32736.6738 451.07001 459.20001
32762.8633 434.28 445.42001
32789.0742 403.97 419.51001
32815.3086 384.81 396.25
32841.5586 376.87 381.53
32867.832 365.95001 374.37
32894.1289 363.29999 371.67999
32920.4453 368.34 371.07001
32946.7813 365.32999 371.39999
32973.1406 364.07001 372.34
32999.5195 368.70001 373.62
33025.918 370.67001 375.42999
33052.3398 373.37 378.51001
33078.7813 376.17001 382.60999
33105.2461 388.92001 386.98001
33131.7305 388.26001 391.51001
33158.2344 394.48999 397.25
33184.7617 406.42001 403.26001
33211.3125 407.95001 405.23001
33237.8789 402.38 400.54999
33264.4727 400.10001 392.29001
33291.082 387.82001 384.78
33317.7188 387.13 380.04001
33344.3711 384.04999 377.98001
33371.0469 389.72 377.79001
33397.7461 388.56 378.91
33424.4648 391.82001 381.39999
33451.2031 400.35001 387.62
33477.9648 420.35001 401.70001
33504.75 454.62 430.12
33531.5508 496.67999 476.66
33558.3789 564.40997 533.15002
33585.2266 595.41998 571.88
33612.0938 579.46997 563.17999
33638.9844 528.03998 515.64001
33665.8945 483.09 461.45001
33692.8281 442.32999 420.92999
33719.7852 426.26001 397.56
33746.7617 403.51999 386.22
33773.7578 395.47 381.04999
33800.7773 400.16 378.53
33827.8203 391.20999 377.07999
33854.8828 385.29999 376.01999
33881.9648 387.10999 375.37
33909.0703 379.12 374.89999
33936.1992 378.34 374.57001
33963.3477 375.95999 374.32999
33990.5195 375.92999 374.39001
34017.7148 374.17999 374.29001
34044.9297 375.63 374.23001
34072.1641 382.01999 374.20999
34099.4219 374.10999 374.20999
34126.7031 376.10999 374.23999
34154.0039 376.04999 374.29001
34181.3281 373.14999 374.35001
34208.6758 378.26001 374.42999
34236.043 368.17001 374.51001
34263.4297 371.79001 374.60999
34290.8438 373.89001 374.73001
34318.2734 362.20001 374.85999
34345.7305 370.70999 375.25
34373.207 367.14001 375.41
34400.707 369.67999 375.07999
34428.2266 370.97 374.76999
34455.7695 368.48999 374.48001
34483.3359 369.72 374.20999
34510.9219 365.51999 373.98999
34538.5313 368.19 373.81
34566.1641 367.64999 373.76001
34593.8164 370.20999 373.95999
34621.4922 368.04999 374.79999
34649.1914 368.95001 376.84
34676.9102 369.48001 380.63
34704.6523 380.73001 385.87
34732.418 381.75 390.57001
34760.2031 381.16 391.29999
34788.0117 378.5 387.70001
34815.8438 377.66 382.23999
34843.6953 368.14999 377.56
34871.5703 365.82001 374.67999
34899.4688 364.56 373.42001
34927.3906 370.29999 373.25
34955.332 367.09 373.91
34983.2969 366.89999 375.62
35011.2852 376.76999 379.60999
35039.293 385.48999 388.91
35067.3242 410.45999 408.51001
35095.3789 442.26999 442.85001
35123.457 493.5 489.48999
35151.5547 528.46997 531.91998
35179.6758 539.08002 542.78003
35207.8203 504.87 513.82001
35235.9883 465.67999 467.42001
35264.1758 434.34 426.28
35292.3906 402.63 399.73001
35320.625 386.82001 386.54001
35348.8789 378.75 382.42999
35377.1602 382.88 385.39999
35405.4609 391.57001 397.73999
35433.7891 416.91 425.01999
35462.1367 466.92001 471.10999
35490.5039 532.02002 529.39001
35518.8984 580.73999 575.07001
35547.3125 578.12 575.89001
35575.7539 535.94 531.44
35604.2148 476.44 472.37
35632.6953 431.82999 423.57001
35661.2031 399.37 392.76001
35689.7344 381.82001 376.56
35718.2852 371.92001 368.73001
35746.8594 364.97 364.73999
35775.457 362.85999 362.34
35804.0781 364.44 360.64001
35832.7227 365.22 359.31
35861.3906 356.67001 358.23001
35890.0781 349.47 357.31
35918.793 354.95999 356.56
35947.5273 355.64001 355.87
35976.2852 359.69 355.23999
36005.0664 352.20999 354.70001
36033.8711 353.29001 354.34
36062.6992 354.39999 354.39999
36091.5508 353.04999 354.54001
36120.4258 348.09 354.73999
36149.3203 357.95001 355.04001
36178.2422 357.42999 355.45001
36207.1836 359.39001 356.01001
36236.1523 354.44 356.82001
36265.1406 354.29001 358.07999
36294.1523 362.95001 360.39999
36323.1875 360.12 365.32999
36352.2461 384.47 375.89999
36381.3281 403.76001 395.98001
36410.4375 431.56 427.01999
36439.5664 461.79999 463.66
36468.7148 487.54999 489.06
36497.8906 485.56 485.35001
36527.0898 455.54999 456.01999
36556.3125 425.73999 420.12
36585.5586 401.56 391.42001
36614.8281 372.37 373.70999
36644.1211 367.39999 364.60001
36673.4375 364.54001 360.37
36702.7734 357.14999 358.37
36732.1367 357.32999 357.29001
36761.5234 356.92001 356.62
36790.9336 356.10999 355.92001
36820.3672 360.66 355.64001
36849.8242 358.89001 355.45999
36879.3047 355.53 355.35999
36908.8086 360 355.35001
36938.3359 356.59 355.42999
36967.8867 360.92999 355.63
36997.4609 354.41 356.07001
37027.0586 352.42999 357.10001
37056.6836 352.82001 359.28
37086.3281 363.28 363.47
37115.9961 364.63 370.10001
37145.6914 382.35001 378.12
37175.4102 395.48999 384.20001
37205.1484 383.48999 384.29999
37234.9141 380.73999 378.45999
37264.7031 375.57001 370.60999
37294.5156 360.85999 364.01999
37324.3516 359.35999 359.79001
37354.2109 364.54001 357.56
37384.0938 358.89001 356.54001
37414.0039 351.03 356.07999
37443.9336 360.98001 355.87
37473.8906 352.22 355.76999
37503.8711 359.20999 355.72
37533.8711 358.22 355.72
37563.9023 360.16 355.82999
37593.9531 356.92001 355.98999
37624.0273 354.85001 356.23999
37654.1289 353.35999 356.67999
37684.25 357.73999 357.42001
37714.3984 351.60999 358.54999
37744.5703 352.78 360.04001
37774.7656 358.07999 361.13
37804.9883 367.01001 361.54001
37835.2305 361.76001 360.92001
37865.5 360.66 359.82999
37895.793 357.63 358.85999
37926.1094 361.35999 358.25
37956.4531 355.19 358.01001
37986.8164 349.87 358
38017.207 360.01001 358.12
38047.6211 359.44 358.29999
38078.0625 354.38 358.51999
38108.5234 363.79999 358.79999
38139.0117 350.75 359.14999
38169.5234 363.84 359.67999
38200.0586 362.54999 360.76999
38230.6211 365.69 362.60001
38261.2031 367.13 365.92999
38291.8125 366.66 371.10999
38322.4492 374.5 377.47
38353.1055 379.87 382.69
38383.7891 377.45001 383.62
38414.4961 376.03 379.76001
38445.2305 372.20999 373.85999
38475.9844 376.42001 368.60001
38506.7656 364.89001 365.09
38537.5742 368.67999 363.20001
38568.4023 365.41 362.41
38599.2578 363.39999 362.16
38630.1406 359.73001 362.14999
38661.043 362.89999 362.25
38691.9727 362.17999 362.41
38722.9258 355.12 362.62
38753.9063 358.32001 362.88
38784.9102 357.98001 363.19
38815.9375 359.89999 363.56
38846.9922 363.48001 364.01999
38878.0703 365.42001 364.60999
38909.1719 364.01999 365.45999
38940.3008 359.10001 366.95001
38971.4531 370.54001 369.91
39002.6289 365.53 375.75
39033.832 389.82001 386.03
39065.0625 403.92001 400.98999
39096.3125 411.45999 417.60001
39127.5898 430.75 428.60999
39158.8945 430.84 426.88
39190.2227 420.23001 414.07001
39221.5742 393.63 398.14001
39252.9531 385.20001 385.07999
39284.3555 377.79999 376.91
39315.7813 370.88 372.79999
39347.2344 371.31 371.28
39378.7148 366.14999 371.20001
39410.2188 377.29999 372.20999
39441.7461 377.70999 374.82999
39473.3008 378.73001 380.72
39504.8789 393.73001 392.67999
39536.4844 408.23001 413.38
39568.1133 440.07001 442.45999
39599.7695 471.64001 472.97
39631.4492 479.54001 490.44
39663.1523 485.32001 483.10999
39694.8867 451.07001 456.62
39726.6406 425.14001 426
39758.4219 408.06 401.51001
39790.2305 387.67001 386.01999
39822.0625 375.63 377.85001
39853.9219 382.47 373.98001
39885.8047 377.59 372.19
39917.7148 371.20001 371.26999
39949.6484 378.01999 370.73999
39981.6094 374.92999 370.41
40013.5937 368.07001 370.20001
40045.6055 367.63 370.07999
40077.6445 373.39001 370.01999
40109.707 374.10001 370.01001
40141.793 373.10999 370.03
40173.9102 363.39001 370.09
40206.0469 369.76001 370.17001
40238.2148 365.67001 370.09
40270.4023 374.67999 369.98001
40302.6211 372.06 369.89001
40334.8633 376.06 369.82999
40367.1328 373.94 369.79001
40399.4258 370.84 370.22
40431.7461 366.53 370.26001
40464.0938 372.57999 370.34
40496.4648 367.45001 370.5
40528.8633 372.39001 370.82001
40561.2852 373.64001 371.47
40593.7344 371.56 372.85001
40626.2109 374.75 375.89001
40658.7109 386.13 381.47
40691.2383 392.63 389.98001
40723.793 403.03 400.17999
40756.3711 412.45001 408.38
40788.9766 410.5 409.78
40821.6094 403.39001 403.42001
40854.2656 399.75 393.38
40886.9531 397.14001 383.98001
40919.6602 379.25 377.26999
40952.3984 378.17999 373.35001
40985.1602 384.82001 371.35001
41017.9492 368.20999 370.39001
41050.7656 378.47 369.92001
41083.6055 367.35001 369.64999
41116.4727 377.26001 369.35001
41149.3672 365.94 369.26001
41182.2852 367.59 369.20999
41215.2305 371.97 369.20999
41248.2031 378.10001 369.72
41281.2031 380.95001 369.81
41314.2305 375.59 369.94
41347.2813 382.87 370.10999
41380.3594 366.07999 370.34
41413.4648 376.51999 370.63
41446.5977 376.95999 370.98999
41479.7539 372.10999 371.42999
41512.9375 366.89999 372
41546.1484 370.39999 372.70999
41579.3867 370.26001 373.60999
41612.6484 374.17999 374.76001
41645.9414 372.03 376.29999
41679.2578 373.10999 378.45001
41712.6016 376.32999 381.82999
41745.9727 380.54001 388.04999
41779.3711 394.63 400.84
41812.793 414.42999 427.01001
41846.2461 458.53 475.38
41879.7227 541.62 551.19
41913.2266 638.35999 646.94
41946.7578 729.78998 734.13
41980.3164 753.58002 768.16998
42013.8984 724.40002 726.62
42047.5117 644.35999 637.26001
42081.1523 551.47998 543.14001
42114.8164 474.39999 470.23001
42148.5078 432.07999 424.48999
42182.2266 405.29001 400.04999
42215.9727 391.66 388.22
42249.7461 377.39999 382.57001
42283.5469 382.92001 379.60001
42317.375 367.29999 377.82999
42351.2305 380.32001 376.79001
42385.1094 361.82001 376.22
42419.0195 372.76999 376.06
42452.957 373.5 376.29001
42486.918 367.42001 376.95001
42520.9063 374.64001 378.13
42554.9258 373.47 380.13
42588.9688 371.07999 383.72
42623.043 384.34 390.95001
42657.1406 394.45001 406.23999
42691.2656 416.92999 437.19
42725.4219 470.13 492.56
42759.6016 555.71997 575.91998
42793.8086 666.59003 676.28003
42828.043 756.60999 761.12
42862.3086 774.40002 785.46997
42896.5977 722.37 733.42999
42930.9141 641.94 637.81
42965.2617 546.37 541.13
42999.6328 479.37 467.53
43034.0352 424.06 421.62
43068.4609 407.78 396.98001
43102.918 384.73001 384.82999
43137.3984 374.64999 378.73999
43171.9102 375.03 375.29999
43206.4492 366.70999 373.01999
43241.0156 377.59 371.35001
43275.6055 367.57001 370.06
43310.2266 370.84 369.01001
43344.8789 364.57001 368.16
43379.5547 365.53 367.45999
43414.2578 368.12 366.87
43448.9883 366.47 366.37
43483.75 362.48001 365.95001
43518.5352 366.31 365.59
43553.3516 365.60999 365.29001
43588.1953 363.91 364.62
43623.0664 365.75 364.45001
43657.9648 364.76001 364.39001
43692.8906 367.87 364.5
43727.8477 377.94 365
43762.8281 370.53 366.17999
43797.8398 370.23999 368.39001
43832.8789 366.14999 371.73001
43867.9453 378.87 375.70001
43903.0391 377.59 378.95999
43938.1641 374.64999 379.73999
43973.3164 379.01001 377.45001
44008.4961 370.35999 373.41
44043.7031 375.97 369.31
44078.9375 368.82001 366.13
44114.1992 368.23001 364.07001
44149.4922 366.98001 362.89999
44184.8125 374.14999 362.26999
44220.1602 367.67001 361.89999
44255.5391 372.62 361.64999
44290.9414 355.44 361.45999
44326.375 360.79001 361.29001
44361.8359 358.45999 361.14001
44397.3281 365.56 361
44432.8477 368.84 360.88
44468.3906 365.78 360.75
44503.9688 358.67999 360.64001
44539.5703 368.23001 360.09
44575.2031 360.42001 360.01001
44610.8633 365.67001 359.92001
44646.5547 359.45001 359.82999
44682.2695 370.84 359.75
44718.0195 355.29001 359.67001
44753.793 358.89999 359.59
44789.5977 364.20001 359.51001
44825.4297 358.26999 359.42999
44861.2891 366.95999 359.35001
44897.1797 359.31 359.26999
44933.0977 365.57999 359.19
44969.043 366.23001 359.12
45005.0195 365.57999 359.04001
45041.0234 357.31 358.95999
45077.0586 361.72 358.88
45113.1211 371.39001 358.81
45149.2109 357.82999 358.73001
45185.332 363.72 358.66
45221.4805 359.73001 358.57999
45257.6563 354.70001 358.5
45293.8633 353.54999 358.42999
45330.0977 359.78 358.35001
45366.3633 357.14999 358.26999
45402.6563 363.45999 358.20001
45438.9805 361.04999 358.20999
45475.332 354.70001 358.14001
45511.7109 356.39001 358.06
45548.1211 356.57999 357.98999
45584.5625 361.23001 357.92001
45621.0313 347.82001 357.85001
45657.5273 353.32999 357.76001
45694.0547 347.07001 357.69
45730.6094 356.85999 357.63
45767.1953 347.39001 357.57001
45803.8086 361.07001 357.53
45840.4531 348.42999 357.48001
45877.125 355.29001 357.44
45913.8281 353.73001 357.39999
45950.5586 354 357.35001
45987.3203 348.97 357.31
46024.1094 353.04001 357.26999
46060.9297 350.54999 357.23001
46097.7773 364.35999 357.19
46134.6563 359.75 357.14999
46171.5664 361.60001 357.12
46208.5039 359.95999 357.07999
46245.4727 354.84 357.04999
46282.4688 355.51999 357.01999
46319.4961 356.07001 356.98999
46356.5508 359.53 356.95999
46393.6367 357.01001 356.92999
46430.75 358.89999 356.91
46467.8984 358.78 356.89001
46505.0703 349.56 356.88
46542.2773 368.48001 356.87
46579.5117 357.60999 356.85999
46616.7734 356.29999 356.87
46654.0703 350.01999 356.88
46691.3906 355.39999 356.89999
46728.7461 351.62 356.94
46766.1289 357.67001 356.98999
46803.543 347.16 357.06
46840.9883 357.06 357.16
46878.4609 353.89001 357.29001
46915.9648 354.22 357.47
46953.4961 363.19 357.70999
46991.0586 362.37 358.06
47028.6523 362.19 358.60999
47066.2773 357.20001 359.60999
47103.9297 366.88 361.62
47141.6133 363.06 365.62
47179.3281 366.88 373.04999
47217.0703 392.76999 385.17999
47254.8438 405.73001 401.95999
47292.6484 427.67001 420.73999
47330.4844 444.14001 435.62
47368.3477 440.26999 439.45001
47406.2461 451.17001 430.16
47444.1719 409.29999 413.23999
47482.125 404.23999 395.95999
47520.1133 389.03 382.89001
47558.1289 380.04999 375.26999
47596.1758 383.73999 371.91
47634.2539 384.32001 370.47
47672.3594 382.10001 368.85999
47710.5 372.62 366.84
47748.668 369.81 363.91
47786.8672 367.37 361.23001
47825.0977 349.38 359.17999
47863.3594 347.42001 357.82999
47901.6484 360.26999 357.01001
47939.9727 350.94 356.53
47978.3242 356.92999 356.23999
48016.707 357.10999 356.03
48055.1211 361.62 355.88
48093.5664 356.41 355.75
48132.043 353 355.64999
48170.5469 353.22 355.56
48209.0859 358.38 355.48001
48247.6523 348.69 355.42001
48286.25 350.91 355.35999
48324.8789 347.73001 355.32001
48363.5391 342.39001 355.29001
48402.2305 341.62 355.26001
48440.9531 350.95999 355.23999
48479.707 340.04999 355.23001
48518.4922 354.29001 355.23001
48557.3086 352.07001 355.23999
48596.1523 348.01999 355.26001
48635.0313 342.70999 355.29001
48673.9375 346.04999 355.32999
48712.8789 346.95999 355.39001
48751.8516 364.07999 355.45999
48790.8516 356.14001 355.54999
48829.8867 364.98001 355.64999
48868.9492 356.92001 356.06
48908.0469 358.37 356.95999
48947.1719 352.09 357.89999
48986.332 375.67001 358.87
49025.5195 358.56 359.89001
49064.7422 370.89999 360.95999
49103.9922 347.28 362.09
49143.2773 351.45999 363.31
49182.5938 363.64001 364.62
49221.9375 352.89999 366.06
49261.3164 362.17999 367.66
49300.7266 361.67999 369.45999
49340.168 373.62 371.47
49379.6406 385.84 374
49419.1445 367.87 377.29001
49458.6797 377.98999 382.14999
49498.2461 394.54001 390.42999
49537.8477 412.76999 405.94
49577.4766 410.47 435.01999
49617.1406 488.66 485.48999
49656.8359 554.70001 562.88
49696.5586 663.27002 664.03003
49736.3164 761.60999 771.12
49776.1055 848.46997 850.06
49815.9297 847.5 863.96997
49855.7813 784.13 805.62
49895.668 720.71002 705.28003
49935.5859 629.63 600.46002
49975.5352 528.83002 515.07001
50015.5156 488.76999 456.92001
50055.5273 444.54999 422.75
50095.5703 434.14999 404.84
50135.6484 417.03 396.07999
50175.7578 401.07001 391.78
50215.8984 405.45999 389.51001
50256.0742 397.51001 388.20001
50296.2773 399.67001 387.39999
50336.5156 389.73999 386.92001
50376.7852 393.76001 386.67999
50417.0859 395.76999 386.60999
50457.4219 377.48999 386.67001
50497.7891 383.95999 386.85001
50538.1875 391.54001 387.10001
50578.6172 391.85999 387.42999
50619.082 388.13 387.81
50659.5781 386.78 388.23999
50700.1055 390.56 388.70999
50740.6641 394.12 389.20001
50781.2578 402.72 389.73001
50821.8828 408.56 390.28
50862.543 389.31 390.85001
50903.2344 388.78 391.42999
50943.957 399.72 392.03
50984.7109 401.85999 392.64999
51025.5 390.10999 393.26999
51066.3203 391.48999 393.91
51107.1758 404.10999 394.54999
51148.0586 389.45001 395.20001
51188.9805 398.82001 395.85999
51229.9297 382.82999 396.53
51270.9141 376.23999 395.94
51311.9336 395.56 395.29001
51352.9844 399.03 394.63
51394.0664 397.59 393.98001
51435.1797 393.37 393.32999
51476.3281 378.16 392.69
51517.5117 392.39999 392.04001
51558.7266 388.34 391.39999
51599.9727 401.23001 390.76001
51641.2539 377.89001 390.12
51682.5664 391.28 389.48999
51723.9141 393.60999 388.85001
51765.293 381.81 388.22
51806.707 384.19 387.57999
51848.1523 375.98001 386.95001
51889.6328 384.92001 386.32001
51931.1445 387.04999 385.20999
51972.6875 387.95001 384.59
52014.2695 379.41 383.98001
52055.8789 367.67999 383.37
52097.5234 366.76001 382.76001
52139.2031 371.09 382.14001
52180.9141 380.79001 381.53
52222.6602 362.14999 381.76999
52264.4375 366.32001 381.19
52306.25 366.69 380.60001
52348.0977 381.16 380.01999
52389.9766 377.89001 379.44
52431.8867 358.26999 378.85999
52473.8359 351.47 378.28
52515.8125 364.26001 377.70001
52557.8281 377.84 377.13
52599.875 358.29999 376.54999
52641.9531 362.10001 375.98001
52684.0664 371.17001 375.41
52726.2148 372.10999 374.85001
52768.3984 370.57001 374.29001
52810.6133 361.17001 373.73001
52852.8633 367.70001 373.17001
52895.1445 372.47 372.62
52937.4609 371.73001 372.22
52979.8125 374.12 372.31
53022.1953 377.57001 372.41
53064.6133 384.20001 372.51999
53107.0664 383.60999 372.63
53149.5508 354.17999 372.76001
53192.0742 382.78 372.89001
53234.6289 373.32999 373.04001
53277.2148 372.19 373.20001
53319.8359 375.81 373.37
53362.4922 373.44 373.56
53405.1836 377.85001 373.76001
53447.9102 365.70999 373.98001
53490.668 374.67001 374.23001
53533.4609 385.60999 374.51001
53576.2891 376.19 374.81
53619.1484 385.82999 375.14999
53662.0469 377.17001 375.53
53704.9766 368.67001 375.95001
53747.9414 375.14999 376.44
53790.9375 389.70001 376.98999
53833.9727 375.85999 377.62
53877.0391 380.45999 378.34
53920.1406 376.67999 379.19
53963.2773 374.34 380.17001
54006.4492 388.89001 381.34
54049.6563 382.51999 382.82999
54092.8945 384.92001 384.51001
54136.1719 360.92001 386.57001
54179.4805 377.95999 389.16
54222.8242 385.59 392.59
54266.2031 398.29001 397.57999
54309.6172 399.67999 405.76999
54353.0664 418.35999 420.72
54396.5469 435.64001 449.04999
54440.0664 481.56 500.98001
54483.6172 586 588.48999
54527.207 700.15002 719.81
54570.8281 892.89001 890.84003
54614.4844 1085.78003 1077.29004
54658.1758 1231.88 1231.75
54701.9023 1298.78003 1295.69995
54745.668 1255.72998 1238.57996
54789.4648 1112.25 1087.84998
54833.2969 939.47998 901.46997
54877.1641 773.48999 728.21997
54921.0664 638.29999 594.14001
54965 521.5 504.39001
55008.9727 477 451.14001
55052.9805 451.70999 422.32999
55097.0234 414.51999 407.56
55141.1016 408.63 400.17001
55185.2148 394.03 396.76001
55229.3633 404.67001 395.88
55273.5508 404.44 396.92001
55317.7695 402.45999 399.28
55362.0234 416.39001 402.01001
55406.3125 411.5 403.73999
55450.6406 400.10999 403.10999
55495 399 399.87
55539.3984 389.01999 395
55583.8281 397.20999 389.85001
55628.2969 390.85001 385.38
55672.8008 393.48001 382.03
55717.3398 383.76001 379.76001
55761.9141 380.25 378.35999
55806.5234 371.87 377.51001
55851.168 380.78 376.98999
55895.8516 373.81 376.64999
55940.5664 386.42001 376.44
55985.3203 384.07999 376.29999
56030.1094 383.98999 376.23999
56074.9336 371.01999 376.26001
56119.793 377.60999 376.35999
56164.6914 372.73999 376.57001
56209.6211 367.92001 376.95001
56254.5898 387.89999 377.67001
56299.5938 379.45999 379.04999
56344.6367 370.45001 381.76001
56389.7109 382.29999 386.85999
56434.8242 400.42001 395.89999
56479.9727 414.45001 409.91
56525.1563 414.48001 429.31
56570.375 457.37 452.42999
56615.6328 500.20001 474.92999
56660.9258 496.63 490.14999
56706.2578 490.87 491.84
56751.6211 480.60001 479.17001
56797.0234 450.97 457.56
56842.4609 433.67999 433.92001
56887.9375 407.67001 413.25
56933.4453 407.76999 397.84
56978.9922 404.35999 387.75
57024.5781 385.19 381.82001
57070.1992 384.31 378.59
57115.8555 369.37 376.85999
57161.5469 388.95999 375.89001
57207.2773 388.75 374.44
57253.043 391.32999 374.04999
57298.8477 382.41 373.76001
57344.6875 386.44 373.53
57390.5625 376.26001 373.35001
57436.4766 371.92001 373.20001
57482.4258 378.5 373.07999
57528.4102 368.01001 372.98999
57574.4336 368.84 372.91
57620.4961 378.92001 372.85001
57666.5938 378.16 372.81
57712.7266 372.29001 372.76999
57758.8945 371.51999 372.75
57805.1055 390.48999 372.73999
57851.3477 386.91 372.73001
57897.6289 377.26001 372.73001
57943.9492 367.10001 372.73999
57990.3047 382.42999 372.73999
58036.6992 372.95999 372.76999
58083.1289 372.23001 372.81
58129.5938 370.73001 372.85001
58176.0977 369.48001 372.91
58222.6406 372.97 372.98001
58269.2188 376.97 373.06
58315.8359 370.85001 373.14999
58362.4883 367.10001 373.26001
58409.1797 378.22 373.39001
58455.9063 372.37 373.54999
58502.6719 379.16 373.73001
58549.4727 378.72 373.95001
58596.3125 365.29999 374.23001
58643.1914 378.84 374.56
58690.1055 373.66 375.01001
58737.0586 375.35999 375.63
58784.0508 365.64001 376.60999
58831.0781 387.10001 378.34
58878.1406 396.44 381.5
58925.2461 394.98999 387.23999
58972.3867 396.32001 397.03
59019.5625 416.42001 412.23001
59066.7813 428.10001 433.29001
59114.0352 467.39001 458.70999
59161.3281 492.20999 484.42001
59208.6563 506.04001 503.84
59256.0234 503.28 509.95999
59303.4297 488.95001 500.13
59350.8711 467.89999 478.44
59398.3516 454.70001 452.20999
59445.8711 418.78 427.5
59493.4297 417.57999 407.79001
59541.0234 391.45999 394.01001
59588.6563 385.66 385.41
59636.3281 385.69 380.48999
59684.0391 377.91 377.82999
59731.7852 371.17001 376.39001
59779.5742 378.89001 375.54999
59827.3984 366.51999 375.01001
59875.2578 369.92999 374.62
59923.1602 377.51999 374.32001
59971.0977 366.35999 374.07999
60019.0781 381.10001 373.88
60067.0938 385.89001 373.72
60115.1484 383.45001 373.59
60163.2383 371.62 373.48001
60211.3711 385.13 373.39001
60259.5391 371.26001 373.31
60307.7461 368.95001 373.23999
60355.9961 377.70999 373.19
60404.2813 378.53 373.14001
60452.6055 381.13 373.10001
60500.9648 370.12 373.07001
60549.3672 369.76001 373.04999
60597.8086 358.64001 373.03
60646.2852 368.51001 373.01999
60694.8047 349.25 373.01001
60743.3594 367.07001 373
60791.957 371.87 373
60840.5898 376.14999 373
60889.2617 376.23001 373
60937.9766 363.67999 373.04001
60986.7266 365.76001 373.09
61035.5156 362.92001 373.14999
61084.3438 371.14001 373.20999
61133.2109 370.84 373.28
61182.1211 367.47 373.35001
61231.0664 367.07999 373.42999
61280.0508 367.95001 373.51001
61329.0742 380.78 373.59
61378.1406 366.23001 373.69
61427.2422 376.51001 373.79001
61476.3828 357.97 373.89999
61525.5664 371.31 374.01999
61574.7891 354.35001 374.14999
61624.0469 374.39999 374.29999
61673.3477 366.76999 374.45999
61722.6875 374.42001 374.66
61772.0664 373.79001 374.88
61821.4844 359.42999 375.14999
61870.9414 380.67999 375.51001
61920.4375 370.35001 376.01999
61969.9766 367.25 376.84
62019.5508 382.67999 378.26999
62069.168 362.19 380.92001
62118.8242 371.75 385.14999
62168.5195 397.01001 392.10999
62218.2539 406.62 402.23999
62268.0313 413.06 415.39001
62317.8438 434.34 430.29999
62367.6992 428.89001 444.35001
62417.5938 448.79001 453.85999
62467.5273 450.26999 455.47
62517.5039 447.28 448.56
62567.5195 427.84 435.73999
62617.5742 416.07001 420.82001
62667.668 395.87 406.91
62717.8008 402.87 395.75
62767.9766 380.98999 387.85001
62818.1914 384.53 382.82001
62868.4453 381.89999 379.89999
62918.7422 374.39001 378.29999
62969.0781 384.76001 377.45001
63019.4531 364.07999 376.98001
63069.8672 374.85001 376.70999
63120.3242 370.09 376.53
63170.8203 376.57001 376.41
63221.3594 371.57999 376.32999
63271.9375 383.45999 376.28
63322.5547 355.35001 376.23999
63373.2148 359.12 376.23001
63423.9141 374.06 376.22
63474.6523 388.64001 376.23001
63525.4336 375.20001 376.25
63576.2539 375.23999 376.28
63627.1133 366.75 376.31
63678.0156 382.31 376.35001
63728.9609 373.79001 376.39999
63779.9453 358.35001 376.45999
63830.9688 380.95999 376.51999
63882.0352 379.23999 376.59
63933.1406 373.64001 376.66
63984.2852 366.63 376.78
64035.4727 385.98999 376.94
64086.7031 386.81 377.10001
64137.9727 371.54999 377.26999
64189.2852 373.29001 377.45001
64240.6367 385.56 377.64001
64292.0273 382.73999 377.84
64343.4648 383.04999 378.04999
64394.9375 390.20001 378.26999
64446.4531 392.01999 378.51001
64498.0117 368.31 378.78
64549.6133 395.06 379.06
64601.25 388.26999 379.38
64652.9336 381.01001 379.73001
64704.6563 376.60999 380.13
64756.4219 371.51999 380.60001
64808.2266 390.14001 381.19
64860.0742 406.13 381.98001
64911.9609 388.29001 383.17999
64963.8906 386.82999 385.17001
65015.8633 369.07999 388.60001
65067.875 409.06 394.48999
65119.9297 400.72 404.07999
65172.0273 431.79999 418.56
65224.1641 428.85001 438.39999
65276.3477 473.12 462.70001
65328.5664 489.94 488.57999
65380.832 517.66998 511.17999
65433.1367 521.53998 524.40002
65485.4844 516.94 523.70001
65537.875 523.71997 509.35999
65590.3047 493.37 486.20001
65642.7734 466.67001 460.42999
65695.2891 449.98001 436.69
65747.8438 420.97 417.69
65800.4453 420.20001 404.07999
65853.0859 404.03 395.29001
65905.7656 399.98999 390.07001
65958.4922 399.64001 387.17001
66011.2656 393.20001 385.60999
66064.0703 401.42999 384.76001
66116.9219 391.60001 384.26999
66169.8203 388.95001 383.95999
66222.75 392.72 383.76001
66275.7344 391.10001 383.63
66328.75 379.75 383.54001
66381.8203 408.39999 383.48999
66434.9219 383.48001 383.45999
66488.0703 378.60001 383.45999
66541.2656 389.91 383.48001
66594.4922 388.85001 383.51001
66647.7734 378.91 383.56
66701.0938 399.85001 383.60999
66754.4531 393.87 383.67999
66807.8594 368.44 383.76001
66861.3047 384.67001 383.84
66914.7891 368.82001 383.92999
66968.3281 376.85999 384.01999
67021.8984 387.20999 384.12
67075.5156 355.73999 384.22
67129.1797 374.42001 384.32001
67182.8828 377.07999 384.42999
67236.6328 377.23999 384.44
67290.4219 384.31 384.39001
67344.25 375.69 384.34
67398.125 363.60001 384.29001
67452.0469 380.81 384.23999
67506.0078 383.16 384.19
67560.0156 383.70001 384.14999
67614.0625 376.72 384.10001
67668.1563 384.67001 384.06
67722.2891 373.64001 384.03
67776.4688 392.59 383.98999
67830.6875 377.82999 383.95001
67884.9531 375.51001 383.92001
67939.2656 375.63 383.89001
67993.6172 380.07999 383.85999
68048.0078 382.98001 383.84
68102.4531 377.51001 383.81
68156.9297 389.12 383.79001
68211.4609 387.94 383.78
68266.0313 386.51999 383.76001
68320.6406 374.94 383.75
68375.2969 386.51999 383.75
68430 375.07001 383.75
68484.7422 381.60999 383.76001
68539.5313 392.07001 383.78
68594.3672 391.5 383.81
68649.2422 373.13 383.85999
68704.1563 381.01001 383.92001
68759.125 385.57001 384.01999
68814.1328 378.82001 384.17001
68869.1797 393.88 384.31
68924.2813 406.56 384.78
68979.4219 418.70001 385.60999
69034.6016 395.79001 387.07999
69089.8281 387.28 389.54001
69145.1016 405 393.35999
69200.4219 401.69 398.82001
69255.7813 408.53 405.89999
69311.1875 420.84 414.10001
69366.6328 436.59 422.35999
69422.1328 426.32001 429.07999
69477.6719 443.98001 432.45999
69533.25 440.07001 431.38
69588.875 417.79001 426.20999
69644.5469 400.95001 418.47
69700.2656 419.42999 409.94
69756.0234 406.14999 402.04001
69811.8281 399.01001 395.57001
69867.6797 393.39001 390.81
69923.5781 388.59 387.60001
69979.5156 380.88 385.59
70035.5 376.19 384.39999
70091.5313 369.95999 383.70001
70147.6016 381.59 383.29001
70203.7188 390.20999 383.01001
70259.8828 375.73999 382.82001
70316.0938 375.07999 382.66
70372.3438 368.94 382.53
70428.6484 358.89999 382.41
70484.9844 377.32999 382.31
70541.375 388.91 382.22
70597.8125 363.69 382.13
70654.2891 368.89999 382.04999
70710.8125 397.76999 381.98001
70767.3828 384.45999 381.91
70824 373.60001 381.85001
70880.6563 374.37 381.79001
70937.3594 372.98999 381.73001
70994.1094 395.12 381.67001
71050.9063 370.14999 381.60999
71107.75 381.29999 381.56
71164.6328 387.73001 381.51001
71221.5703 371.64001 381.45999
71278.5469 390.64999 381.41
71335.5703 375.89999 381.35999
71392.6406 382.01001 381.32001
71449.75 365.64001 381.26999
71506.9141 367.98001 381.22
71564.1172 404.67999 381.17999
71621.3672 371.98999 381.13
71678.6719 401.82999 381.09
71736.0078 369.70001 381.04999
71793.3984 398.92999 381
71850.8359 376.23001 380.95999
71908.3203 389.04001 380.92001
71965.8438 379.92999 380.87
72023.4141 360.62 380.82999
72081.0391 386.17999 380.79001
72138.7031 371.14001 380.75
72196.4141 382.26001 380.70999
72254.1719 394.35001 380.98999
72311.9766 366.70999 380.95999
72369.8281 400.60999 380.92999
72427.7188 390.51999 380.89999
72485.6641 375.20999 380.87
72543.6563 394.70999 380.84
72601.6875 374.87 380.81
72659.7734 391.91 380.78
72717.8984 366.91 380.75
72776.0703 378.23999 380.72
72834.2969 388.42001 380.69
72892.5625 379.20999 380.67001
72950.875 354.23001 380.64001
73009.2422 378.97 380.62
73067.6484 384.23001 380.59
73126.1016 378.07999 380.57001
73184.6016 371.37 380.54001
73243.1484 379.20999 380.48001
73301.75 384.23999 380.47
73360.3906 382.76001 380.45001
73419.0781 392.67001 380.44
73477.8125 381.64999 380.42999
73536.5938 359.17999 380.41
73595.4219 399.94 380.39999
73654.3047 416.73001 380.39999
73713.2266 391.17001 380.39001
73772.1953 384.10001 380.38
73831.2188 381.56 380.38
73890.2813 360.23001 380.38
73949.3906 375.26001 380.38
74008.5547 382.63 380.38
74067.7578 388.82999 380.39001
74127.0156 372.79001 380.39001
74186.3203 355.42001 380.41
74245.6641 364.72 380.42001
74305.0625 382.59 380.44
74364.5078 390.42001 380.45999
74424 374.26001 380.48001
74483.5391 376.39001 380.51001
74543.125 377.73001 380.54999
74602.7656 384.78 380.59
74662.4453 375.73001 380.64001
74722.1797 376.72 380.70001
74781.9531 390.91 380.76001
74841.7813 365.56 380.82999
74901.6563 390.10001 380.92001
74961.5781 373.20999 381.01001
75021.5469 380.47 381.12
75081.5625 380.07001 381.23999
75141.6328 397.14999 381.39001
75201.7422 386.47 381.54999
75261.9063 377.63 381.73999
75322.1172 395.10001 381.95001
75382.375 363.20999 382.20001
75442.6797 388.28 382.48999
75503.0313 381.14999 382.82001
75563.4375 370.56 383.20001
75623.8906 394.92001 383.66
75684.3906 382.26001 384.20001
75744.9375 400.67001 384.85001
75805.5313 395.92999 385.67001
75866.1797 385.59 386.75
75926.875 382.82001 388.28
75987.6172 397.31 390.64001
76048.4063 392.48001 394.51001
76109.2422 393.37 401.04999
76170.1328 420.28 412
76231.0703 438.45999 429.67999
76292.0547 468.92999 456.70999
76353.0859 497.28 495.31
76414.1719 552.09003 546.28998
76475.3047 642.33002 607.90002
76536.4844 651.38 675.03003
76597.7109 726.98999 738.94
76658.9922 762.21002 788.12
76720.3203 771.59003 810.95001
76781.6953 766.78998 800.97998
76843.125 742.35999 760.98999
76904.5938 685.77002 701.19
76966.1172 626.21997 633.66998
77027.6953 565.09998 568.58002
77089.3203 536.76001 512.64001
77150.9922 465.85999 468.92001
77212.7109 428.57999 437.48999
77274.4844 438.67001 416.5
77336.3047 417.01001 403.32999
77398.1719 420.84 395.41
77460.0859 425.14999 390.72
77522.0547 395.48001 387.89999
77584.0781 406.48999 386.09
77646.1406 396.84 384.82999
77708.2578 379.63 383.87
77770.4297 395.70001 383.10001
77832.6484 392.53 382.45999
77894.9141 395.41 381.91
77957.2266 400.20001 381.42999
78019.5938 399.13 381.01001
78082.0078 369.51001 380.64001
78144.4766 376.14001 380.32001
78206.9922 379.01001 380.01999
78269.5625 382.70001 379.76001
78332.1719 373.64001 379.51999
78394.8438 392.59 379.29999
78457.5547 409.76001 379.10001
78520.3281 382.29999 378.92001
78583.1406 387.64001 378.75
78646.0078 389.57001 378.59
78708.9297 366.37 378.45001
78771.8906 398.14001 378.31
78834.9141 364.92001 378.17999
78897.9766 377.45999 378.06
78961.1016 368.41 377.95001
79024.2656 378.57001 377.84
79087.4844 402.95001 377.73999
79150.7578 384.92001 377.64999
79214.0781 398.76001 377.54999
79277.4531 368.67001 377.47
79340.875 373.78 377.38
79404.3438 351.10999 377.29999
79467.875 368.25 377.22
79531.4453 374.64001 377.14001
79595.0703 375.42999 377.07001
79658.75 360.41 377
79722.4766 383.34 376.92999
79786.2578 375.03 376.85999
79850.0859 369.87 376.79999
79913.9609 387.13 376.73999
79977.8984 359.87 376.64999
80041.8828 366.22 376.54999
80105.9141 390.16 376.45999
80170 372.89999 376.35999
80234.1328 373.07001 376.26001
80298.3203 358.20001 376.17001
80362.5625 362.28 376.07999
80426.8516 391.88 375.98999
80491.1953 379.84 375.89001
80555.5859 362.44 375.79999
80620.0313 380.60999 375.70999
80684.5313 386.34 375.63
80749.0781 351.72 375.54001
80813.6797 354.17999 375.45001
80878.3281 380.76999 375.35999
80943.0313 380.03 375.26999
81007.7891 378.89999 375.19
81072.5938 383.54999 375.10001
81137.4531 379.45001 375.01999
81202.3594 367.73001 374.60001
81267.3281 376.39999 374.51999
81332.3359 364.5 374.45001
81397.4063 348.88 374.37
81462.5234 369.01999 374.29999
81527.6953 357 374.22
81592.9141 365.01999 374.14999
81658.1953 358.54999 374.07001
81723.5156 353.73001 373.98999
81788.8984 357.23001 373.92001
81854.3281 374.84 373.84
81919.8125 348.16 373.76001
81985.3516 380.29001 373.69
82050.9375 372.79001 373.60999
82116.5781 379 373.53
82182.2734 379.42999 373.45999
82248.0234 351.09 373.38
82313.8203 372.76999 373.31
82379.6719 367.98001 373.23001
82445.5781 343.42001 373.14999
82511.5313 366.85001 373.07001
82577.5391 374.42999 373
82643.6016 379.69 372.92001
82709.7188 370.14999 372.84
82775.8906 385.09 372.76999
82842.1094 367.51999 372.69
82908.3828 389.53 372.64999
82974.7109 375.95999 372.64999
83041.0938 376.41 372.64999
83107.5234 376.39999 372.64999
83174.0078 371.20999 372.64999
83240.5547 381.23001 372.64999
83307.1406 388.45999 372.66
83373.7891 373.78 372.66
83440.4922 390.69 372.66
83507.2422 376.63 372.66
83574.0469 358.67001 372.66
83640.9063 360.95001 372.66
83707.8203 375.23001 372.66
83774.7891 374.01001 372.66
83841.8125 363.23001 372.66
83908.8828 356.29999 372.66
83976.0078 385.98001 372.66
84043.1953 373.98001 372.66
84110.4297 379.17001 372.66
84177.7188 379.70001 372.66
84245.0547 383.97 372.67001
84312.4531 373.88 372.67001
84379.9063 371.26001 372.67001
84447.4063 385.54001 372.67001
84514.9688 378.22 372.67001
84582.5781 396.42999 372.67001
84650.25 389.88 372.67001
84717.9688 396.34 372.67001
84785.7422 382.89999 372.67001
84853.5703 389.12 372.67001
84921.4531 385.78 372.67001
84989.3906 391.22 372.67001
85057.3828 390.13 372.67001
85125.4297 360.01001 372.67001
85193.5313 374.13 372.67999
85261.6875 372.06 372.67999
85329.8984 383.01999 372.67999
85398.1641 362.32001 372.67999
85466.4844 378.92999 372.67999
85534.8516 384.32001 372.67999
85603.2813 381.51001 372.67999
85671.7656 368.89999 372.67999
85740.3047 377.89001 372.67999
85808.8984 369.42999 372.67999
85877.5469 342.04999 372.67999
85946.25 379.28 372.67999
86015.0078 412.92001 372.67999
86083.8203 361.95999 372.67999
86152.6875 369.29001 372.69
86221.6094 373.85001 372.69
86290.5859 376.54001 372.69
86359.6172 379.32999 372.69
86428.7031 373.60001 372.69
86497.8516 372.41 372.69
86567.0469 359.32999 372.69
86636.3047 371.72 372.69
86705.6094 365.98999 372.69
86774.9766 384.60999 372.69
86844.3984 369.39999 372.69
86913.875 370.82999 372.69
86983.4063 359.98999 372.69
87052.9922 375.07001 372.70001
87122.6328 370.75 372.70001
87192.3359 364.25 372.70001
87262.0859 344.01001 372.70001
87331.8984 375.66 372.70001
87401.7656 369.73999 372.70001
87471.6875 377.14001 372.70001
87541.6641 365.45001 372.70001
87611.6953 357.92999 372.70001
87681.7891 347.64001 372.70001
87751.9375 382.01001 372.70001
87822.1328 384.79999 372.70001
87892.3984 381.64999 372.70001
87962.7109 377.14999 372.70001
88033.0781 389.87 372.70999
88103.5078 373.5 372.70999
88173.9922 341.85001 372.70999
88244.5313 390.14999 372.70999
88315.125 375.81 372.98999
88385.7813 378.13 373.34
88456.4844 369.63 373.70001
88527.25 385.82001 374.04999
88598.0781 375.48999 374.39999
88668.9531 367.37 374.76001
88739.8906 383.95999 375.10999
88810.8828 368.45999 375.47
88881.9297 366.89001 375.82001
88953.0391 369.64001 376.17999
89024.2031 374.69 376.54001
89095.4219 366.48001 376.89001
89166.6953 392.75 377.25
89238.0313 390.26999 377.60999
89309.4219 374.14999 377.95999
89380.8672 382.34 378.32001
89452.375 356.31 378.67999
89523.9375 368.17001 379.03
89595.5547 368.48999 379.39001
89667.2344 385.82001 379.75
89738.9688 370.67999 380.10999
89810.7578 366.66 380.47
89882.6094 367.98999 380.82999
89954.5156 386.35001 381.19
90026.4844 369.62 381.54999
90098.5 384.42999 381.91
90170.5781 390.62 382.26999
90242.7188 394.87 382.63
90314.9141 398.95001 382.98999
90387.1641 369.59 383.35001
90459.4766 394.17999 383.70999
90531.8438 364.89999 384.07999
90604.2734 393.60001 384.44
90676.7578 391.98999 384.91
90749.2969 365.23001 385.69
90821.8984 421.48999 386.45999
90894.5547 396.37 387.23999
90967.2734 363.66 388.01999
91040.0469 396.07999 388.79999
91112.875 426.38 389.57999
91185.7656 370.75 390.35999
91258.7188 381.60999 391.14001
91331.7266 388.09 391.92001
91404.7891 404.64999 392.70001
91477.9141 412.35001 393.48999
91551.0938 406.95001 394.26999
91624.3359 386.59 395.04999
91697.6406 424.59 395.84
91771 418.69 396.62
91844.4141 382.20999 397.41
91917.8906 416.34 398.20001
91991.4297 384.17001 398.98001
92065.0156 382.37 399.76999
92138.6719 371.79001 400.56
92212.3828 417.23999 401.35001
92286.1563 392.23001 402.20999
92359.9844 380.23001 403.01001
92433.875 407.29999 403.79999
92507.8203 396.82001 404.59
92581.8281 422.04001 405.38
92655.8906 420.01999 406.17999
92730.0156 436.20999 406.97
92804.2031 379.63 407.76999
92878.4453 414.63 408.57001
92952.75 404.73001 409.35999
93027.1094 389.48001 410.16
93101.5313 398.5 410.95999
93176.0156 426 411.76001
93250.5547 415.01001 412.56
93325.1563 407.34 413.35999
93399.8203 415.59 414.16
93474.5391 380.26001 414.14001
93549.3203 433.76001 414.01999
93624.1563 428.23001 413.89999
93699.0625 410.62 413.79001
93774.0156 405.79999 413.67001
93849.0391 411.37 413.54999
93924.1172 385.95001 413.44
93999.2578 417.20999 413.32001
94074.4609 413.89001 413.20001
94149.7188 406.67999 413.09
94225.0391 413.22 412.97
94300.4219 440.48999 412.85001
94375.8594 450.98999 412.73999
94451.3594 417.10001 412.62
94526.9219 429.48001 412.5
94602.5469 429.70001 412.39001
94678.2266 384.73999 412.26999
94753.9688 413.41 412.16
94829.7734 421.28 412.04001
94905.6406 421.73999 411.92001
94981.5625 423.54999 411.81
95057.5469 430.91 411.69
95133.5938 423.35001 411.57999
95209.7031 412.57999 411.45999
95285.875 413.51001 411.35001
95362.1016 387.37 411.23999
95438.3906 395.67001 411.12
95514.7422 429.87 411.01001
95591.1563 410.70001 410.89999
95667.625 415.64001 410.78
95744.1641 415.38 410.67001
95820.7578 411.60999 410.54999
95897.4141 412.60001 410.44
95974.1328 405.82999 410.32001
96050.9141 399 410.20999
96127.7578 412.26001 410.09
96204.6563 391.14001 409.98001
96281.625 388.07999 409.87
96358.6484 408.67001 409.76001
96435.7344 386.95001 409.64001
96512.8828 406.98001 409.54001
96590.0938 400.54001 409.42999
96667.3672 398.95999 409.32001
96744.7031 405.45999 409.22
96822.1016 392.70999 409.12
96899.5547 403.35999 409.01999
96977.0781 418.60001 408.92001
97054.6563 404.69 408.82999
97132.3047 413.88 408.73001
97210.0078 425 408.64999
97287.7813 403.82999 408.56
97365.6094 380.04001 408.48001
97443.5 392.5 408.41
97521.4531 384.37 408.34
97599.4766 394.98999 408.28
97677.5547 411.09 408.23001
97755.6953 399.94 408.19
97833.8984 428.95999 408.16
97912.1719 427.48999 408.14001
97990.5 433.60001 408.14001
98068.8906 406.95001 408.17001
98147.3516 422.87 408.23999
98225.8672 425 408.37
98304.4453 442.60001 408.60001
98383.0938 419.63 409
98461.7969 406.44 409.69
98540.5703 403.53 410.81
98619.3984 445.03 412.60999
98698.2969 411.98001 415.39999
98777.2578 416.17001 419.53
98856.2813 436.76001 425.41
98935.3672 436.04999 433.37
99014.5156 452.03 443.59
99093.7266 483.89001 456.03
99173 492.39001 470.25
99252.3438 508.26999 485.42999
99331.7422 531.69 500.32999
99411.2109 500.26001 513.38
99490.7344 518.53998 522.83002
99570.3281 525.07001 527.19
99649.9844 530.03003 525.65002
99729.7109 490.70999 518.42999
99809.4922 462.69 506.73999
99889.3438 498.69 492.25
99969.25 459 476.66
100049.227 472.98999 461.42999
100129.266 432.67999 447.63
100209.375 430.09 435.89999
100289.539 410.98999 426.5
100369.773 432.25 419.34
100450.07 393.84 414.13
100530.43 437.45999 410.48999
100610.852 387.20999 408.01999
100691.344 405.12 406.37
100771.898 415.89999 405.26001
100852.516 436.75 404.5
100933.195 439.22 403.94
101013.945 396.89999 403.51999
101094.758 411.69 403.16
101175.633 391 402.85999
101256.57 392.25 402.57999
101337.578 377.34 402.32001
101418.648 376.54001 402.07999
101499.789 407.32001 401.85999
101580.984 413.35001 401.64001
101662.25 392.19 401.42999
101743.578 395.56 401.17001
101824.977 376.28 400.53
101906.438 401.45999 399.89999
101987.961 405.19 399.26999
102069.555 375.51999 398.64001
102151.211 384.26001 398.01999
102232.93 406.51999 397.41
102314.719 416.88 396.79001
102396.57 394.89999 396.17999
102478.492 401.34 395.57001
102560.469 410.10999 394.95999
102642.523 384.78 394.35001
102724.633 404.56 393.73999
102806.813 370.35999 393.14001
102889.063 381.89001 392.53
102971.375 393.95999 391.92999
103053.75 426.32999 391.32999
103136.195 370.5 390.72
103218.703 394.39999 390.12
103301.281 379.09 389.51999
103383.922 413.41 388.92001
103466.625 382.88 388.32001
103549.406 384.26999 387.72
103632.242 412.31 387.12
103715.148 420.17001 386.51999
103798.125 391.97 385.92001
103881.164 377.98001 385.32001
103964.266 384.26001 384.72
104047.438 378.60999 384.12
104130.68 386.82001 383.89001
104213.984 381.35999 383.29999
104297.352 399.29999 382.70999
104380.789 380.47 382.10999
104464.297 394.03 381.51999
104547.867 406.13 380.92999
104631.508 379.85999 380.32999
104715.211 374.70999 379.73999
104798.984 402.64999 379.14999
104882.828 385.57999 378.54999
104966.734 385.37 378.23001
105050.703 374.14001 377.95001
105134.75 355.78 377.67999
105218.859 387.57999 377.39999
105303.031 372.29999 377.12
105387.273 381.23999 376.85001
105471.586 364.47 376.57001
105555.961 354.53 376.29999
105640.406 346.32001 376.01999
105724.922 367.26001 375.75
105809.5 355.95999 375.48001
105894.148 360.14001 375.20001
105978.867 360.88 374.92999
106063.648 404.35001 374.66
106148.5 371.64999 374.38
106233.422 365.01999 374.10999
106318.406 382.69 373.84
106403.461 383.53 373.57001
106488.586 362.70999 373.29999
106573.773 387.37 373.03
106659.039 352.94 372.76001
106744.367 367.32999 372.48999
106829.758 373.76001 372.14001
106915.227 374.75 371.87
107000.758 388.29001 371.60999
107086.359 381.85999 371.34
107172.023 355.92999 371.07999
107257.766 356.79001 370.81
107343.57 358.87 370.54999
107429.445 355.69 370.29001
107515.391 374.81 370.03
107601.406 351.76999 369.76999
107687.484 343.92001 369.51001
107773.633 373.42001 369.25
107859.859 397.47 368.98999
107946.141 375.51999 368.73999
108032.5 380.44 368.48001
108118.93 366.5 368.23001
108205.422 353.51999 367.98001
108291.992 366.07001 367.73001
108378.625 386.64999 367.48001
108465.328 404.59 367.23999
108552.102 378.73999 366.98999
108638.938 359.20999 366.75
108725.852 357.70999 366.51001
108812.836 383.88 366.28
108899.883 384.5 366.04999
108987.008 388.95001 365.82001
109074.195 343.45999 365.59
109161.453 353.32999 365.37
109248.781 391.89999 365.16
109336.188 366.44 364.94
109423.656 384.29001 364.73999
109511.195 351.95999 364.53
109598.805 362 364.34
109686.484 363.03 364.14999
109774.234 364.75 363.97
109862.055 388.01999 363.84
109949.945 363.63 363.79999
110037.906 353.54999 363.76999
110125.93 370.10001 363.73999
110214.031 378.5 363.73999
110302.203 373.37 363.73999
110390.445 376.73001 363.76001
110478.758 372.42999 363.79999
110567.148 324.51999 363.85999
110655.602 362.89999 363.94
110744.125 364.73001 364.04001
110832.719 358.56 364.17001
110921.391 330.98999 364.34
111010.125 404.66 364.54001
111098.93 378.72 364.78
111187.813 358.95001 365.07999
111276.766 383.01999 365.45001
111365.789 381.48999 365.91
111454.875 372.17001 366.48999
111544.039 377.07001 367.26999
111633.281 376.28 368.32999
111722.586 371.76001 369.85999
111811.961 408.85999 372.10999
111901.414 370.42001 375.51001
111990.938 370.04001 380.63
112080.531 407.60001 388.32001
112170.195 368.45999 399.64001
112259.93 410.03 415.89999
112349.742 397.17999 438.56
112439.617 459.70001 469.07999
112529.57 453.39999 508.64001
112619.594 519.25 557.90002
112709.695 597.34998 616.59998
112799.859 661.77002 683.28003
112890.102 786.09998 755.13
112980.414 837.82001 827.90997
113070.797 869.35999 896.15002
113161.258 991.41998 953.56
113251.781 970.46002 993.77002
113342.391 1027.17004 1011.60999
113433.063 1041.81995 1004.46997
113523.805 931.48999 973.28998
113614.625 862.25 922.20001
113705.523 808.17999 857.20001
113796.484 756.97998 784.79999
113887.523 652.48999 710.97998
113978.633 615.07001 640.65997
114069.82 508.51001 577.39001
114161.07 466.34 523.28003
114252.406 471.38 479.07999
114343.805 454.72 444.48999
114435.281 437.81 418.45999
114526.828 415.23001 399.57001
114618.453 398.79999 386.26001
114710.148 386.53 377.10999
114801.914 394.39999 370.92001
114893.758 410.85999 366.73001
114985.672 357.73001 363.85001
115077.664 380.81 361.81
115169.727 329.57001 360.29001
115261.859 382.54001 359.10001
115354.07 382.73999 358.12
115446.352 353.01999 357.28
115538.711 348.62 356.54001
115631.141 371.17001 355.87
115723.648 377.89999 355.25
115816.227 399.32999 354.67999
115908.883 363.22 354.14999
116001.609 389.73999 353.66
116094.414 361.67001 353.19
116187.289 358.44 352.75
116280.234 348.81 352.32999
116373.266 326.84 351.94
116466.359 365.07001 351.56
116559.531 362.32999 351.19
116652.781 346.73001 350.84
116746.109 359.85001 350.35001
116839.5 341.79999 349.85999
116932.977 326.67999 349.38
117026.523 331.09 348.91
117120.141 369.10999 348.45999
117213.844 345.35001 348
117307.609 349.79001 347.56
117401.461 361.45999 347.12
117495.383 337.76001 346.69
117589.375 307.16 346.26001
117683.453 377.12 345.82999
117777.594 339.04999 345.42001
117871.82 379.38 345
117966.117 366.12 344.59
118060.492 336.45999 344.17999
118154.938 331.59 343.78
118249.461 370.10001 343.37
118344.063 359.92999 342.97
118438.742 335.17999 342.57999
118533.492 309.87 342.17999
118628.32 325.42999 341.79001
118723.219 345.07001 341.39999
118818.203 314.98999 341.01001
118913.258 354.25 340.62
119008.391 347.51001 340.23001
119103.594 330.31 339.85001
119198.875 328.75 339.45999
119294.234 332.82999 339.07999
119389.672 324.81 338.70001
119485.188 341.73999 338.32001
119580.773 330.10999 337.94
119676.438 358.28 337.56
119772.18 314.42999 337.17999
119868 353.60001 336.81
119963.891 334.25 336.42999
120059.867 350.34 336.04999
120155.914 358.41 335.67999
120252.039 305.66 335.29999
120348.242 315.88 334.92999
120444.523 336.89999 334.54999
120540.875 342.28 334.17999
120637.313 362.89999 333.81
120733.82 337.57001 333.42999
120830.406 327.73001 333.06
120927.07 313.35001 332.69
121023.813 342.47 332.32001
121120.633 363.20999 331.95001
121217.531 309.67999 331.57001
121314.508 361.22 331.20001
121411.555 313.64999 330.82999
121508.688 336.60001 330.60001
121605.898 354.20001 330.59

_cod_database_fobs_code 2108369
