#------------------------------------------------------------------------------
#$Date: 2019-11-17 05:03:17 +0200 (Sun, 17 Nov 2019) $
#$Revision: 228016 $
#$URL: file:///home/coder/svn-repositories/cod/cif/7/12/17/7121799.cif $
#------------------------------------------------------------------------------
#
# This file is available in the Crystallography Open Database (COD),
# http://www.crystallography.net/
#
# All data on this site have been placed in the public domain by the
# contributors.
#
data_7121799
loop_
_publ_author_name
'Ovchinnikov, Alexander'
'Makongo, Julien P. A.'
'Bobev, Svilen'
_publ_section_title
;
 Yet again, new compounds found in systems with known binary phase
 diagrams. Synthesis, crystal and electronic structure of
 Nd<sub>3</sub>Bi<sub>7</sub> and Sm<sub>3</sub>Bi<sub>7</sub>.
;
_journal_issue                   51
_journal_name_full
'Chemical communications (Cambridge, England)'
_journal_page_first              7089
_journal_page_last               7092
_journal_paper_doi               10.1039/c8cc02563k
_journal_volume                  54
_journal_year                    2018
_chemical_formula_sum            'Bi7 Nd3'
_chemical_formula_weight         1895.58
_space_group_crystal_system      orthorhombic
_space_group_IT_number           71
_space_group_name_Hall           '-I 2 2'
_space_group_name_H-M_alt        'I m m m'
_symmetry_space_group_name_Hall  '-I 2 2'
_symmetry_space_group_name_H-M   'I m m m'
_audit_creation_method           SHELXL-2014/7
_audit_update_record
;
2018-03-27 deposited with the CCDC.
2018-06-04 downloaded from the CCDC.
;
_cell_angle_alpha                90
_cell_angle_beta                 90
_cell_angle_gamma                90
_cell_formula_units_Z            4
_cell_length_a                   4.2996(6)
_cell_length_b                   15.200(2)
_cell_length_c                   19.121(3)
_cell_measurement_reflns_used    578
_cell_measurement_temperature    200(2)
_cell_measurement_theta_max      29.73
_cell_measurement_theta_min      5.14
_cell_volume                     1249.6(3)
_computing_cell_refinement       'Bruker SAINT'
_computing_data_collection       'Bruker APEX2'
_computing_data_reduction        'Bruker SAINT'
_computing_structure_refinement  'SHELXL-2014/7 (Sheldrick, 2014)'
_computing_structure_solution    'Bruker SHELXTL'
_diffrn_ambient_temperature      200(2)
_diffrn_measured_fraction_theta_full 1.000
_diffrn_measured_fraction_theta_max 1.000
_diffrn_measurement_device_type  'CCD area detector'
_diffrn_measurement_method       'phi and omega scans'
_diffrn_radiation_type           MoK\a
_diffrn_radiation_wavelength     0.71073
_diffrn_reflns_av_R_equivalents  0.0748
_diffrn_reflns_av_unetI/netI     0.0658
_diffrn_reflns_Laue_measured_fraction_full 1.000
_diffrn_reflns_Laue_measured_fraction_max 1.000
_diffrn_reflns_limit_h_max       6
_diffrn_reflns_limit_h_min       -6
_diffrn_reflns_limit_k_max       21
_diffrn_reflns_limit_k_min       -21
_diffrn_reflns_limit_l_max       27
_diffrn_reflns_limit_l_min       -27
_diffrn_reflns_number            5960
_diffrn_reflns_point_group_measured_fraction_full 1.000
_diffrn_reflns_point_group_measured_fraction_max 1.000
_diffrn_reflns_theta_full        25.242
_diffrn_reflns_theta_max         30.740
_diffrn_reflns_theta_min         1.711
_diffrn_source                   'sealed tube'
_exptl_absorpt_coefficient_mu    110.339
_exptl_absorpt_correction_T_max  0.051
_exptl_absorpt_correction_T_min  0.010
_exptl_absorpt_correction_type   multi-scan
_exptl_crystal_colour            black
_exptl_crystal_density_diffrn    10.076
_exptl_crystal_description       block
_exptl_crystal_F_000             3044
_exptl_crystal_size_max          0.070
_exptl_crystal_size_mid          0.060
_exptl_crystal_size_min          0.040
_refine_diff_density_max         3.213
_refine_diff_density_min         -3.895
_refine_diff_density_rms         0.787
_refine_ls_extinction_coef       0.00025(2)
_refine_ls_extinction_expression Fc^*^=kFc[1+0.001xFc^2^\l^3^/sin(2\q)]^-1/4^
_refine_ls_extinction_method     'SHELXL-2014/7 (Sheldrick 2014'
_refine_ls_goodness_of_fit_ref   1.021
_refine_ls_hydrogen_treatment    undef
_refine_ls_matrix_type           full
_refine_ls_number_parameters     38
_refine_ls_number_reflns         1159
_refine_ls_number_restraints     0
_refine_ls_restrained_S_all      1.021
_refine_ls_R_factor_all          0.0555
_refine_ls_R_factor_gt           0.0399
_refine_ls_shift/su_max          0.000
_refine_ls_shift/su_mean         0.000
_refine_ls_structure_factor_coef Fsqd
_refine_ls_weighting_details
'w=1/[\s^2^(Fo^2^)+(0.0248P)^2^] where P=(Fo^2^+2Fc^2^)/3'
_refine_ls_weighting_scheme      calc
_refine_ls_wR_factor_gt          0.0824
_refine_ls_wR_factor_ref         0.0893
_reflns_Friedel_coverage         0.000
_reflns_number_gt                882
_reflns_number_total             1159
_reflns_threshold_expression     'I > 2\s(I)'
_cod_data_source_file            c8cc02563k2.cif
_cod_data_source_block           shelx
_cod_depositor_comments
;
The following automatic conversions were performed:

'_exptl_absorpt_correction_type' value 'Multi-scan' changed to
'multi-scan' according to
/home/data/users/saulius/crontab/automatic-downloads/rss-feeds/RSC/lib/dictionaries/cif_core.dic
dictionary named 'cif_core.dic' version 2.4.2 from 2011-04-26.

Automatic conversion script
Id: cif_fix_values 4973 2017-02-22 13:04:09Z antanas 

 Adding full bibliography for 7121799--7121800.cif.
;
_cod_database_code               7121799
_shelx_shelxl_version_number     2014/7
_shelx_space_group_comment
;
The symmetry employed for this shelxl refinement is uniquely defined
by the following loop, which should always be used as a source of
symmetry information in preference to the above space-group names.
They are only intended as comments.
;
_shelx_estimated_absorpt_t_min   0.048
_shelx_estimated_absorpt_t_max   0.096
_shelx_res_file
;

    shelx.res created by SHELXL-2014/7


TITL Nd3Bi7 in Immm
CELL  0.71073   4.2996  15.2000  19.1206   90.000   90.000   90.000
ZERR     4.00   0.0006   0.0020   0.0027    0.000    0.000    0.000
LATT   2
SYMM  - X, - Y,   Z
SYMM    X, - Y, - Z
SYMM  - X,   Y, - Z
SFAC  BI   ND
UNIT  28 12
MERG   2
FMAP   2
PLAN   20
L.S.  20
temp -73.0
size 0.04        0.06        0.07
acta
WGHT    0.024800
EXTI    0.000246
FVAR       0.01918
ND1   2    0.000000    0.139127    0.368287    10.50000    0.01527    0.01725 =
         0.01483    0.00089    0.00000    0.00000
ND2   2    0.000000    0.000000    0.172660    10.25000    0.01726    0.01622 =
         0.01444    0.00000    0.00000    0.00000
BI1   1    0.000000    0.211758    0.196817    10.50000    0.01709    0.01747 =
         0.01628    0.00008    0.00000    0.00000
BI2   1    0.000000    0.360194    0.411983    10.50000    0.01890    0.02001 =
         0.01822   -0.00039    0.00000    0.00000
BI3   1    0.500000    0.000000    0.300905    10.25000    0.01515    0.01793 =
         0.01625    0.00000    0.00000    0.00000
BI4   1    0.000000    0.335210    0.000000    10.25000    0.01646    0.02305 =
         0.01420    0.00000    0.00000    0.00000
BI5   1    0.500000    0.500000    0.000000    10.12500    0.02481    0.01842 =
         0.01393    0.00000    0.00000    0.00000
BI6   1    0.000000    0.000000    0.000000    10.12500    0.01924    0.02882 =
         0.01584    0.00000    0.00000    0.00000

HKLF    4

REM  Nd3Bi7 in Immm
REM R1 =  0.0399 for     882 Fo > 4sig(Fo)  and  0.0555 for all    1159 data
REM     38 parameters refined using      0 restraints

END

WGHT      0.0246      0.0000

REM Highest difference peak  3.213,  deepest hole -3.895,  1-sigma level  0.787
Q1    1   0.2979  0.0000  0.2931  10.50000  0.05    3.21
Q2    1   0.2988  0.0000  0.2174  10.50000  0.05    2.78
Q3    1  -0.3434  0.0000  0.0000  10.25000  0.05    2.76
Q4    1   0.7168  0.5000 -0.0897  10.50000  0.05    2.61
Q5    1   0.5000  0.5000 -0.0602  10.25000  0.05    2.60
Q6    1   0.0000  0.3323  0.0515  10.50000  0.05    2.50
Q7    1   0.1954  0.0508  0.0000  10.50000  0.05    2.47
Q8    1   0.3734  0.3285  0.0000  10.50000  0.05    2.20
Q9    1   0.1918  0.0306  0.1898  11.00000  0.05    2.20
Q10   1   0.1959  0.3140  0.3642  11.00000  0.05    2.15
Q11   1   0.1354  0.0000  0.0328  10.50000  0.05    2.15
Q12   1   0.1635  0.5000  0.0240  10.50000  0.05    2.15
Q13   1   0.1767  0.1027  0.3633  11.00000  0.05    2.10
Q14   1   0.2454  0.2199  0.1675  11.00000  0.05    2.09
Q15   1   0.2158  0.3679  0.0291  11.00000  0.05    2.09
Q16   1   0.2174  0.3040  0.4103  11.00000  0.05    2.06
Q17   1   0.3052  0.3762  0.4428  11.00000  0.05    2.06
Q18   1   0.0000  0.3471  0.4568  10.50000  0.05    2.02
Q19   1   0.2830  0.3208  0.4607  11.00000  0.05    1.98
Q20   1   0.0000  0.3500  0.3688  10.50000  0.05    1.98
;
_shelx_res_checksum              28703
loop_
_space_group_symop_operation_xyz
'x, y, z'
'-x, -y, z'
'x, -y, -z'
'-x, y, -z'
'x+1/2, y+1/2, z+1/2'
'-x+1/2, -y+1/2, z+1/2'
'x+1/2, -y+1/2, -z+1/2'
'-x+1/2, y+1/2, -z+1/2'
'-x, -y, -z'
'x, y, -z'
'-x, y, z'
'x, -y, z'
'-x+1/2, -y+1/2, -z+1/2'
'x+1/2, y+1/2, -z+1/2'
'-x+1/2, y+1/2, z+1/2'
'x+1/2, -y+1/2, z+1/2'
loop_
_atom_site_label
_atom_site_type_symbol
_atom_site_fract_x
_atom_site_fract_y
_atom_site_fract_z
_atom_site_U_iso_or_equiv
_atom_site_adp_type
_atom_site_occupancy
_atom_site_site_symmetry_order
_atom_site_calc_flag
_atom_site_refinement_flags_posn
_atom_site_refinement_flags_adp
_atom_site_refinement_flags_occupancy
Nd1 Nd 0.0000 0.13913(7) 0.36829(6) 0.0158(2) Uani 1 2 d S T P
Nd2 Nd 0.0000 0.0000 0.17266(8) 0.0160(3) Uani 1 4 d S T P
Bi1 Bi 0.0000 0.21176(5) 0.19682(4) 0.01695(19) Uani 1 2 d S T P
Bi2 Bi 0.0000 0.36019(5) 0.41198(4) 0.0190(2) Uani 1 2 d S T P
Bi3 Bi 0.5000 0.0000 0.30090(6) 0.0164(2) Uani 1 4 d S T P
Bi4 Bi 0.0000 0.33521(7) 0.0000 0.0179(2) Uani 1 4 d S T P
Bi5 Bi 0.5000 0.5000 0.0000 0.0191(3) Uani 1 8 d S T P
Bi6 Bi 0.0000 0.0000 0.0000 0.0213(3) Uani 1 8 d S T P
loop_
_atom_site_aniso_label
_atom_site_aniso_U_11
_atom_site_aniso_U_22
_atom_site_aniso_U_33
_atom_site_aniso_U_23
_atom_site_aniso_U_13
_atom_site_aniso_U_12
Nd1 0.0153(5) 0.0173(5) 0.0148(5) 0.0009(4) 0.000 0.000
Nd2 0.0173(8) 0.0162(6) 0.0144(7) 0.000 0.000 0.000
Bi1 0.0171(4) 0.0175(3) 0.0163(4) 0.0001(3) 0.000 0.000
Bi2 0.0189(4) 0.0200(4) 0.0182(4) -0.0004(3) 0.000 0.000
Bi3 0.0151(5) 0.0179(5) 0.0162(5) 0.000 0.000 0.000
Bi4 0.0165(5) 0.0230(5) 0.0142(5) 0.000 0.000 0.000
Bi5 0.0248(9) 0.0184(7) 0.0139(7) 0.000 0.000 0.000
Bi6 0.0192(8) 0.0288(8) 0.0158(7) 0.000 0.000 0.000
loop_
_atom_type_symbol
_atom_type_description
_atom_type_scat_dispersion_real
_atom_type_scat_dispersion_imag
_atom_type_scat_source
Bi Bi -4.1077 10.2566 'International Tables Vol C Tables 4.2.6.8 and 6.1.1.4'
Nd Nd -0.1943 3.0179 'International Tables Vol C Tables 4.2.6.8 and 6.1.1.4'
loop_
_geom_angle_atom_site_label_1
_geom_angle_atom_site_label_2
_geom_angle_atom_site_label_3
_geom_angle
_geom_angle_site_symmetry_1
_geom_angle_site_symmetry_3
Bi3 Nd1 Bi3 81.93(3) . 1_455
Bi3 Nd1 Bi5 83.46(3) . 5_445
Bi3 Nd1 Bi5 83.47(3) 1_455 5_445
Bi3 Nd1 Bi4 87.11(2) . 13
Bi3 Nd1 Bi4 142.65(4) 1_455 13
Bi5 Nd1 Bi4 59.79(2) 5_445 13
Bi3 Nd1 Bi4 142.65(4) . 13_455
Bi3 Nd1 Bi4 87.11(2) 1_455 13_455
Bi5 Nd1 Bi4 59.79(2) 5_445 13_455
Bi4 Nd1 Bi4 80.30(3) 13 13_455
Bi3 Nd1 Bi1 82.54(2) . 13
Bi3 Nd1 Bi1 135.10(4) 1_455 13
Bi5 Nd1 Bi1 135.80(2) 5_445 13
Bi4 Nd1 Bi1 77.79(2) 13 13
Bi4 Nd1 Bi1 127.80(4) 13_455 13
Bi3 Nd1 Bi1 135.10(4) . 13_455
Bi3 Nd1 Bi1 82.54(2) 1_455 13_455
Bi5 Nd1 Bi1 135.80(2) 5_445 13_455
Bi4 Nd1 Bi1 127.80(4) 13 13_455
Bi4 Nd1 Bi1 77.79(2) 13_455 13_455
Bi1 Nd1 Bi1 79.48(3) 13 13_455
Bi3 Nd1 Bi1 80.41(3) . .
Bi3 Nd1 Bi1 80.41(3) 1_455 .
Bi5 Nd1 Bi1 158.59(4) 5_445 .
Bi4 Nd1 Bi1 132.73(2) 13 .
Bi4 Nd1 Bi1 132.73(2) 13_455 .
Bi1 Nd1 Bi1 55.53(2) 13 .
Bi1 Nd1 Bi1 55.53(2) 13_455 .
Bi3 Nd1 Bi2 136.106(17) . .
Bi3 Nd1 Bi2 136.106(17) 1_455 .
Bi5 Nd1 Bi2 116.06(4) 5_445 .
Bi4 Nd1 Bi2 72.79(3) 13 .
Bi4 Nd1 Bi2 72.79(3) 13_455 .
Bi1 Nd1 Bi2 55.61(2) 13 .
Bi1 Nd1 Bi2 55.61(2) 13_455 .
Bi1 Nd1 Bi2 85.35(3) . .
Bi1 Nd2 Bi1 163.67(6) . 2
Bi1 Nd2 Bi3 83.87(2) . 1_455
Bi1 Nd2 Bi3 83.87(2) 2 1_455
Bi1 Nd2 Bi3 83.87(2) . .
Bi1 Nd2 Bi3 83.87(2) 2 .
Bi3 Nd2 Bi3 82.48(5) 1_455 .
Bi1 Nd2 Bi6 98.17(3) . .
Bi1 Nd2 Bi6 98.17(3) 2 .
Bi3 Nd2 Bi6 138.76(2) 1_455 .
Bi3 Nd2 Bi6 138.76(2) . .
Bi1 Nd2 Bi2 132.89(2) . 14_445
Bi1 Nd2 Bi2 56.876(17) 2 14_445
Bi3 Nd2 Bi2 86.650(18) 1_455 14_445
Bi3 Nd2 Bi2 140.20(2) . 14_445
Bi6 Nd2 Bi2 61.84(3) . 14_445
Bi1 Nd2 Bi2 56.876(17) . 13
Bi1 Nd2 Bi2 132.89(2) 2 13
Bi3 Nd2 Bi2 140.20(2) 1_455 13
Bi3 Nd2 Bi2 86.651(18) . 13
Bi6 Nd2 Bi2 61.84(3) . 13
Bi2 Nd2 Bi2 123.67(5) 14_445 13
Bi1 Nd2 Bi2 56.876(17) . 13_455
Bi1 Nd2 Bi2 132.89(2) 2 13_455
Bi3 Nd2 Bi2 86.650(18) 1_455 13_455
Bi3 Nd2 Bi2 140.20(2) . 13_455
Bi6 Nd2 Bi2 61.84(3) . 13_455
Bi2 Nd2 Bi2 76.60(3) 14_445 13_455
Bi2 Nd2 Bi2 77.66(3) 13 13_455
Bi1 Nd2 Bi2 132.89(2) . 14_545
Bi1 Nd2 Bi2 56.876(17) 2 14_545
Bi3 Nd2 Bi2 140.20(2) 1_455 14_545
Bi3 Nd2 Bi2 86.651(18) . 14_545
Bi6 Nd2 Bi2 61.84(3) . 14_545
Bi2 Nd2 Bi2 77.66(3) 14_445 14_545
Bi2 Nd2 Bi2 76.60(3) 13 14_545
Bi2 Nd2 Bi2 123.67(5) 13_455 14_545
Bi1 Bi1 Bi1 85.09(4) 13 13_455
Bi1 Bi1 Bi2 178.51(4) 13 13_455
Bi1 Bi1 Bi2 94.988(17) 13_455 13_455
Bi1 Bi1 Bi2 94.988(17) 13 13
Bi1 Bi1 Bi2 178.51(4) 13_455 13
Bi2 Bi1 Bi2 84.90(3) 13_455 13
Bi1 Bi1 Nd2 116.92(3) 13 .
Bi1 Bi1 Nd2 116.92(3) 13_455 .
Bi2 Bi1 Nd2 64.36(3) 13_455 .
Bi2 Bi1 Nd2 64.36(3) 13 .
Bi1 Bi1 Nd1 63.78(3) 13 13
Bi1 Bi1 Nd1 115.00(4) 13_455 13
Bi2 Bi1 Nd1 114.91(3) 13_455 13
Bi2 Bi1 Nd1 63.78(2) 13 13
Nd2 Bi1 Nd1 127.92(3) . 13
Bi1 Bi1 Nd1 115.00(4) 13 13_455
Bi1 Bi1 Nd1 63.78(3) 13_455 13_455
Bi2 Bi1 Nd1 63.78(2) 13_455 13_455
Bi2 Bi1 Nd1 114.91(3) 13 13_455
Nd2 Bi1 Nd1 127.92(3) . 13_455
Nd1 Bi1 Nd1 79.48(3) 13 13_455
Bi1 Bi1 Nd1 60.69(3) 13 .
Bi1 Bi1 Nd1 60.69(3) 13_455 .
Bi2 Bi1 Nd1 120.62(3) 13_455 .
Bi2 Bi1 Nd1 120.62(3) 13 .
Nd2 Bi1 Nd1 79.56(4) . .
Nd1 Bi1 Nd1 124.47(2) 13 .
Nd1 Bi1 Nd1 124.47(2) 13_455 .
Bi1 Bi2 Bi1 84.90(3) 13_455 13
Bi1 Bi2 Bi2 130.776(17) 13_455 10_556
Bi1 Bi2 Bi2 130.776(18) 13 10_556
Bi1 Bi2 Nd2 109.13(4) 13_455 13
Bi1 Bi2 Nd2 58.76(2) 13 13
Bi2 Bi2 Nd2 118.17(3) 10_556 13
Bi1 Bi2 Nd2 58.76(2) 13_455 13_455
Bi1 Bi2 Nd2 109.13(4) 13 13_455
Bi2 Bi2 Nd2 118.17(3) 10_556 13_455
Nd2 Bi2 Nd2 77.66(3) 13 13_455
Bi1 Bi2 Bi6 161.44(3) 13_455 5
Bi1 Bi2 Bi6 96.270(14) 13 5
Bi2 Bi2 Bi6 60.894(14) 10_556 5
Nd2 Bi2 Bi6 57.27(3) 13 5
Nd2 Bi2 Bi6 103.80(2) 13_455 5
Bi1 Bi2 Bi6 96.270(14) 13_455 5_455
Bi1 Bi2 Bi6 161.44(3) 13 5_455
Bi2 Bi2 Bi6 60.894(13) 10_556 5_455
Nd2 Bi2 Bi6 103.80(2) 13 5_455
Nd2 Bi2 Bi6 57.27(3) 13_455 5_455
Bi6 Bi2 Bi6 76.833(19) 5 5_455
Bi1 Bi2 Nd1 60.61(2) 13_455 .
Bi1 Bi2 Nd1 60.61(2) 13 .
Bi2 Bi2 Nd1 103.96(2) 10_556 .
Nd2 Bi2 Nd1 119.18(3) 13 .
Nd2 Bi2 Nd1 119.18(3) 13_455 .
Bi6 Bi2 Nd1 135.516(17) 5 .
Bi6 Bi2 Nd1 135.516(17) 5_455 .
Nd2 Bi3 Nd2 82.48(5) 1_655 .
Nd2 Bi3 Nd1 136.69(3) 1_655 .
Nd2 Bi3 Nd1 82.14(2) . .
Nd2 Bi3 Nd1 82.14(2) 1_655 1_655
Nd2 Bi3 Nd1 136.69(3) . 1_655
Nd1 Bi3 Nd1 81.93(3) . 1_655
Nd2 Bi3 Nd1 136.69(3) 1_655 2
Nd2 Bi3 Nd1 82.14(2) . 2
Nd1 Bi3 Nd1 80.31(3) . 2
Nd1 Bi3 Nd1 133.73(5) 1_655 2
Nd2 Bi3 Nd1 82.14(2) 1_655 2_655
Nd2 Bi3 Nd1 136.69(3) . 2_655
Nd1 Bi3 Nd1 133.73(5) . 2_655
Nd1 Bi3 Nd1 80.31(3) 1_655 2_655
Nd1 Bi3 Nd1 81.93(3) 2 2_655
Bi5 Bi4 Bi5 81.28(3) . 1_455
Bi5 Bi4 Nd1 59.422(19) . 13
Bi5 Bi4 Nd1 109.34(3) 1_455 13
Bi5 Bi4 Nd1 109.34(3) . 6_454
Bi5 Bi4 Nd1 59.422(19) 1_455 6_454
Nd1 Bi4 Nd1 166.56(5) 13 6_454
Bi5 Bi4 Nd1 109.34(3) . 13_455
Bi5 Bi4 Nd1 59.422(19) 1_455 13_455
Nd1 Bi4 Nd1 80.30(3) 13 13_455
Nd1 Bi4 Nd1 98.11(3) 6_454 13_455
Bi5 Bi4 Nd1 59.422(19) . 6_554
Bi5 Bi4 Nd1 109.34(3) 1_455 6_554
Nd1 Bi4 Nd1 98.11(3) 13 6_554
Nd1 Bi4 Nd1 80.30(3) 6_454 6_554
Nd1 Bi4 Nd1 166.56(5) 13_455 6_554
Nd1 Bi5 Nd1 180.00(3) 14 6_554
Nd1 Bi5 Nd1 99.96(4) 14 5_554
Nd1 Bi5 Nd1 80.04(4) 6_554 5_554
Nd1 Bi5 Nd1 80.04(4) 14 13
Nd1 Bi5 Nd1 99.96(4) 6_554 13
Nd1 Bi5 Nd1 180.00(4) 5_554 13
Nd1 Bi5 Bi4 60.793(15) 14 9_665
Nd1 Bi5 Bi4 119.207(15) 6_554 9_665
Nd1 Bi5 Bi4 60.793(15) 5_554 9_665
Nd1 Bi5 Bi4 119.207(15) 13 9_665
Nd1 Bi5 Bi4 60.793(15) 14 9_565
Nd1 Bi5 Bi4 119.207(15) 6_554 9_565
Nd1 Bi5 Bi4 60.793(15) 5_554 9_565
Nd1 Bi5 Bi4 119.207(15) 13 9_565
Bi4 Bi5 Bi4 81.28(3) 9_665 9_565
Nd1 Bi5 Bi4 119.207(15) 14 1_655
Nd1 Bi5 Bi4 60.793(15) 6_554 1_655
Nd1 Bi5 Bi4 119.207(15) 5_554 1_655
Nd1 Bi5 Bi4 60.793(15) 13 1_655
Bi4 Bi5 Bi4 98.72(3) 9_665 1_655
Bi4 Bi5 Bi4 180.0 9_565 1_655
Nd1 Bi5 Bi4 119.208(15) 14 .
Nd1 Bi5 Bi4 60.792(15) 6_554 .
Nd1 Bi5 Bi4 119.208(15) 5_554 .
Nd1 Bi5 Bi4 60.792(15) 13 .
Bi4 Bi5 Bi4 180.0 9_665 .
Bi4 Bi5 Bi4 98.72(3) 9_565 .
Bi4 Bi5 Bi4 81.28(3) 1_655 .
Nd2 Bi6 Nd2 180.0 . 9
Nd2 Bi6 Bi2 60.893(13) . 13
Nd2 Bi6 Bi2 119.107(13) 9 13
Nd2 Bi6 Bi2 119.107(13) . 5_444
Nd2 Bi6 Bi2 60.893(14) 9 5_444
Bi2 Bi6 Bi2 180.00(3) 13 5_444
Nd2 Bi6 Bi2 60.893(13) . 14_445
Nd2 Bi6 Bi2 119.107(13) 9 14_445
Bi2 Bi6 Bi2 121.79(3) 13 14_445
Bi2 Bi6 Bi2 58.21(3) 5_444 14_445
Nd2 Bi6 Bi2 119.107(13) . 6_554
Nd2 Bi6 Bi2 60.893(13) 9 6_554
Bi2 Bi6 Bi2 58.21(3) 13 6_554
Bi2 Bi6 Bi2 121.79(3) 5_444 6_554
Bi2 Bi6 Bi2 180.00(3) 14_445 6_554
Nd2 Bi6 Bi2 60.893(13) . 14_545
Nd2 Bi6 Bi2 119.107(13) 9 14_545
Bi2 Bi6 Bi2 75.79(2) 13 14_545
Bi2 Bi6 Bi2 104.21(2) 5_444 14_545
Bi2 Bi6 Bi2 76.832(19) 14_445 14_545
Bi2 Bi6 Bi2 103.168(19) 6_554 14_545
Nd2 Bi6 Bi2 119.107(13) . 6_454
Nd2 Bi6 Bi2 60.893(13) 9 6_454
Bi2 Bi6 Bi2 104.21(2) 13 6_454
Bi2 Bi6 Bi2 75.79(2) 5_444 6_454
Bi2 Bi6 Bi2 103.168(19) 14_445 6_454
Bi2 Bi6 Bi2 76.832(19) 6_554 6_454
Bi2 Bi6 Bi2 180.00(3) 14_545 6_454
Nd2 Bi6 Bi2 119.107(13) . 5_544
Nd2 Bi6 Bi2 60.893(13) 9 5_544
Bi2 Bi6 Bi2 103.168(19) 13 5_544
Bi2 Bi6 Bi2 76.832(19) 5_444 5_544
Bi2 Bi6 Bi2 104.21(2) 14_445 5_544
Bi2 Bi6 Bi2 75.79(2) 6_554 5_544
Bi2 Bi6 Bi2 58.21(3) 14_545 5_544
Bi2 Bi6 Bi2 121.79(3) 6_454 5_544
Nd2 Bi6 Bi2 60.893(13) . 13_455
Nd2 Bi6 Bi2 119.107(13) 9 13_455
Bi2 Bi6 Bi2 76.832(19) 13 13_455
Bi2 Bi6 Bi2 103.168(19) 5_444 13_455
Bi2 Bi6 Bi2 75.79(2) 14_445 13_455
Bi2 Bi6 Bi2 104.21(2) 6_554 13_455
Bi2 Bi6 Bi2 121.79(3) 14_545 13_455
Bi2 Bi6 Bi2 58.21(3) 6_454 13_455
Bi2 Bi6 Bi2 180.00(2) 5_544 13_455
loop_
_geom_bond_atom_site_label_1
_geom_bond_atom_site_label_2
_geom_bond_distance
_geom_bond_site_symmetry_2
Nd1 Bi3 3.2793(9) .
Nd1 Bi3 3.2793(9) 1_455
Nd1 Bi5 3.2886(11) 5_445
Nd1 Bi4 3.3341(9) 13
Nd1 Bi4 3.3341(9) 13_455
Nd1 Bi1 3.3628(10) 13
Nd1 Bi1 3.3628(10) 13_455
Nd1 Bi1 3.4595(14) .
Nd1 Bi2 3.4625(13) .
Nd2 Bi1 3.2517(9) .
Nd2 Bi1 3.2517(9) 2
Nd2 Bi3 3.2610(15) 1_455
Nd2 Bi3 3.2611(15) .
Nd2 Bi6 3.3014(16) .
Nd2 Bi2 3.4288(10) 14_445
Nd2 Bi2 3.4288(10) 13
Nd2 Bi2 3.4288(10) 13_455
Nd2 Bi2 3.4288(10) 14_545
Bi1 Bi1 3.1795(12) 13
Bi1 Bi1 3.1795(12) 13_455
Bi1 Bi2 3.1851(9) 13_455
Bi1 Bi2 3.1851(9) 13
Bi1 Nd1 3.3628(10) 13
Bi1 Nd1 3.3628(10) 13_455
Bi2 Bi1 3.1852(9) 13_455
Bi2 Bi1 3.1852(9) 13
Bi2 Bi2 3.3660(17) 10_556
Bi2 Nd2 3.4288(10) 13
Bi2 Nd2 3.4288(10) 13_455
Bi2 Bi6 3.4597(7) 5
Bi2 Bi6 3.4597(7) 5_455
Bi3 Nd2 3.2610(15) 1_655
Bi3 Nd1 3.2793(9) 1_655
Bi3 Nd1 3.2793(9) 2
Bi3 Nd1 3.2793(9) 2_655
Bi4 Bi5 3.3009(9) .
Bi4 Bi5 3.3009(9) 1_455
Bi4 Nd1 3.3341(9) 13
Bi4 Nd1 3.3341(9) 6_454
Bi4 Nd1 3.3341(9) 13_455
Bi4 Nd1 3.3341(9) 6_554
Bi5 Nd1 3.2886(11) 14
Bi5 Nd1 3.2886(11) 6_554
Bi5 Nd1 3.2886(11) 5_554
Bi5 Nd1 3.2886(11) 13
Bi5 Bi4 3.3008(9) 9_665
Bi5 Bi4 3.3008(9) 9_565
Bi5 Bi4 3.3008(9) 1_655
Bi6 Nd2 3.3014(16) 9
Bi6 Bi2 3.4598(7) 13
Bi6 Bi2 3.4598(7) 5_444
Bi6 Bi2 3.4598(7) 14_445
Bi6 Bi2 3.4598(7) 6_554
Bi6 Bi2 3.4598(7) 14_545
Bi6 Bi2 3.4598(7) 6_454
Bi6 Bi2 3.4598(7) 5_544
Bi6 Bi2 3.4598(7) 13_455
