#------------------------------------------------------------------------------
#$Date: 2016-02-16 14:49:47 +0200 (Tue, 16 Feb 2016) $
#$Revision: 176465 $
#$URL: svn://www.crystallography.net/cod/cif/9/00/09/9000953.cif $
#------------------------------------------------------------------------------
#
# This file is available in the Crystallography Open Database (COD),
# http://www.crystallography.net/. The original data for this entry
# were provided the American Mineralogist Crystal Structure Database,
# http://rruff.geo.arizona.edu/AMS/amcsd.php
#
# The file may be used within the scientific community so long as
# proper attribution is given to the journal article from which the
# data were obtained.
#
data_9000953
loop_
_publ_author_name
'Hassan, I.'
'Grundy, H. D.'
_publ_section_title
;
 The crystal structures of helvite group minerals, (MnFeZn)8(Be6Si6O24)S2
;
_journal_name_full               'American Mineralogist'
_journal_page_first              186
_journal_page_last               192
_journal_volume                  70
_journal_year                    1985
_chemical_formula_sum            'Be3 Fe4 O12 S Si3'
_chemical_name_mineral           Danalite
_space_group_IT_number           218
_symmetry_space_group_name_Hall  'P -4n 2 3'
_symmetry_space_group_name_H-M   'P -4 3 n'
_cell_angle_alpha                90
_cell_angle_beta                 90
_cell_angle_gamma                90
_cell_length_a                   8.232
_cell_length_b                   8.232
_cell_length_c                   8.232
_cell_volume                     557.848
_exptl_crystal_density_diffrn    3.326
_cod_original_formula_sum        'Fe4 O12 Be3 Si3 S'
_cod_database_code               9000953
loop_
_symmetry_equiv_pos_as_xyz
x,y,z
-z,x,-y
-y,z,-x
-x,y,-z
1/2+x,1/2-z,1/2-y
1/2+z,1/2-y,1/2-x
1/2+y,1/2-x,1/2-z
1/2+x,1/2+z,1/2+y
1/2+z,1/2+y,1/2+x
1/2+y,1/2+x,1/2+z
-z,-x,y
-y,-z,x
-x,-y,z
z,-x,-y
y,-z,-x
x,-y,-z
1/2-x,1/2+z,1/2-y
1/2-z,1/2+y,1/2-x
1/2-y,1/2+x,1/2-z
1/2-x,1/2-z,1/2+y
1/2-z,1/2-y,1/2+x
1/2-y,1/2-x,1/2+z
z,x,y
y,z,x
loop_
_atom_site_aniso_label
_atom_site_aniso_U_11
_atom_site_aniso_U_22
_atom_site_aniso_U_33
_atom_site_aniso_U_12
_atom_site_aniso_U_13
_atom_site_aniso_U_23
Fe 0.00690 0.00690 0.00690 0.00030 0.00030 0.00030
O 0.00700 0.00680 0.00580 0.00230 0.00120 0.00120
Be 0.00780 0.00590 0.00590 0.00000 0.00000 0.00000
Si 0.00370 0.00290 0.00290 0.00000 0.00000 0.00000
S 0.01030 0.01030 0.01030 0.00000 0.00000 0.00000
loop_
_atom_site_label
_atom_site_fract_x
_atom_site_fract_y
_atom_site_fract_z
Fe 0.16930 0.16930 0.16930
O 0.13950 0.14010 0.41260
Be 0.25000 0.00000 0.50000
Si 0.25000 0.50000 0.00000
S 0.00000 0.00000 0.00000
