#------------------------------------------------------------------------------
#$Date: 2016-02-16 14:49:47 +0200 (Tue, 16 Feb 2016) $
#$Revision: 176465 $
#$URL: svn://www.crystallography.net/cod/cif/9/00/33/9003326.cif $
#------------------------------------------------------------------------------
#
# This file is available in the Crystallography Open Database (COD),
# http://www.crystallography.net/. The original data for this entry
# were provided the American Mineralogist Crystal Structure Database,
# http://rruff.geo.arizona.edu/AMS/amcsd.php
#
# The file may be used within the scientific community so long as
# proper attribution is given to the journal article from which the
# data were obtained.
#
data_9003326
loop_
_publ_author_name
'Hassan, I.'
'Antao, S. M.'
'Parise, J. B.'
_publ_section_title
;
 Sodalite: High-temperature structures obtained from synchrotron radiation
 and Rietveld refinements
 Sample: T = 588 C
;
_journal_name_full               'American Mineralogist'
_journal_page_first              359
_journal_page_last               364
_journal_volume                  89
_journal_year                    2004
_chemical_formula_sum            'Al3 Cl Na4 O12 Si3'
_chemical_name_mineral           Sodalite
_space_group_IT_number           218
_symmetry_space_group_name_Hall  'P -4n 2 3'
_symmetry_space_group_name_H-M   'P -4 3 n'
_cell_angle_alpha                90
_cell_angle_beta                 90
_cell_angle_gamma                90
_cell_length_a                   8.95963
_cell_length_b                   8.95963
_cell_length_c                   8.95963
_cell_volume                     719.234
_diffrn_ambient_temperature      861.15
_exptl_crystal_density_diffrn    2.238
_cod_original_formula_sum        'Na4 Al3 Si3 O12 Cl'
_cod_database_code               9003326
loop_
_symmetry_equiv_pos_as_xyz
x,y,z
-z,x,-y
-y,z,-x
-x,y,-z
1/2+x,1/2-z,1/2-y
1/2+z,1/2-y,1/2-x
1/2+y,1/2-x,1/2-z
1/2+x,1/2+z,1/2+y
1/2+z,1/2+y,1/2+x
1/2+y,1/2+x,1/2+z
-z,-x,y
-y,-z,x
-x,-y,z
z,-x,-y
y,-z,-x
x,-y,-z
1/2-x,1/2+z,1/2-y
1/2-z,1/2+y,1/2-x
1/2-y,1/2+x,1/2-z
1/2-x,1/2-z,1/2+y
1/2-z,1/2-y,1/2+x
1/2-y,1/2-x,1/2+z
z,x,y
y,z,x
loop_
_atom_site_label
_atom_site_fract_x
_atom_site_fract_y
_atom_site_fract_z
_atom_site_U_iso_or_equiv
Na 0.18160 0.18160 0.18160 0.05410
Al 0.25000 0.00000 0.50000 0.01060
Si 0.25000 0.50000 0.00000 0.01060
O 0.14272 0.15294 0.44612 0.01710
Cl 0.00000 0.00000 0.00000 0.08650
