#------------------------------------------------------------------------------
#$Date: 2016-02-16 14:49:47 +0200 (Tue, 16 Feb 2016) $
#$Revision: 176465 $
#$URL: svn://www.crystallography.net/cod/cif/9/00/83/9008376.cif $
#------------------------------------------------------------------------------
#
# This file is available in the Crystallography Open Database (COD),
# http://www.crystallography.net/. The original data for this entry
# were provided the American Mineralogist Crystal Structure Database,
# http://rruff.geo.arizona.edu/AMS/amcsd.php
#
# The file may be used within the scientific community so long as
# proper attribution is given to the journal article from which the
# data were obtained.
#
data_9008376
loop_
_publ_author_name
'Kudoh, Y.'
'Takeuchi, Y.'
_publ_section_title
;
 The effect of pressure on helvite Mn8S2[Be6Si6O24]
 Locality: Schwarzenberg, Saxony
 Sample: P = 40 kbar
;
_journal_name_full               'Zeitschrift fur Kristallographie'
_journal_page_first              305
_journal_page_last               312
_journal_paper_doi               10.1524/zkri.1985.173.3-4.305
_journal_volume                  173
_journal_year                    1985
_chemical_formula_sum            'Be3 Mn4 O12 S Si3'
_chemical_name_mineral           Helvine
_space_group_IT_number           218
_symmetry_space_group_name_Hall  'P -4n 2 3'
_symmetry_space_group_name_H-M   'P -4 3 n'
_cell_angle_alpha                90
_cell_angle_beta                 90
_cell_angle_gamma                90
_cell_length_a                   8.203
_cell_length_b                   8.203
_cell_length_c                   8.203
_cell_volume                     551.973
_diffrn_ambient_pressure         4e+06
_exptl_crystal_density_diffrn    3.340
_cod_original_formula_sum        'Mn4 Be3 Si3 O12 S'
_cod_database_code               9008376
loop_
_symmetry_equiv_pos_as_xyz
x,y,z
-z,x,-y
-y,z,-x
-x,y,-z
1/2+x,1/2-z,1/2-y
1/2+z,1/2-y,1/2-x
1/2+y,1/2-x,1/2-z
1/2+x,1/2+z,1/2+y
1/2+z,1/2+y,1/2+x
1/2+y,1/2+x,1/2+z
-z,-x,y
-y,-z,x
-x,-y,z
z,-x,-y
y,-z,-x
x,-y,-z
1/2-x,1/2+z,1/2-y
1/2-z,1/2+y,1/2-x
1/2-y,1/2+x,1/2-z
1/2-x,1/2-z,1/2+y
1/2-z,1/2-y,1/2+x
1/2-y,1/2-x,1/2+z
z,x,y
y,z,x
loop_
_atom_site_label
_atom_site_fract_x
_atom_site_fract_y
_atom_site_fract_z
_atom_site_U_iso_or_equiv
Mn 0.17080 0.17080 0.17080 0.01102
Be 0.50000 0.00000 0.25000 0.07346
Si 0.00000 0.50000 0.25000 0.00773
O 0.13820 0.14000 0.41470 0.00735
S 0.50000 0.50000 0.50000 0.03926
