#------------------------------------------------------------------------------
#$Date: 2014-07-12 11:06:43 +0300 (Sat, 12 Jul 2014) $
#$Revision: 120115 $
#$URL: svn://www.crystallography.net/cod/cif/9/00/99/9009928.cif $
#------------------------------------------------------------------------------
#
# This file is available in the Crystallography Open Database (COD),
# http://www.crystallography.net/. The original data for this entry
# were provided the American Mineralogist Crystal Structure Database,
# http://rruff.geo.arizona.edu/AMS/amcsd.php
#
# The file may be used within the scientific community so long as
# proper attribution is given to the journal article from which the
# data were obtained.
#
data_9009928
loop_
_publ_author_name
'Brandt, G.'
'Rauber, A.'
'Schneider, J.'
_publ_section_title
;ESR and X-ray analysis of the ternary semiconductors CuAlS2, CuInS2, and
 AgGaS2 Locality: Synthetic sample Note: Chalcopyrite structure
;
_journal_name_full               'Solid State Communications'
_journal_page_first              481
_journal_page_last               483
_journal_volume                  12
_journal_year                    1973
_chemical_formula_sum            'Cu Ga S2'
_chemical_name_mineral           Gallite
_space_group_IT_number           122
_symmetry_space_group_name_Hall  'I -4 2bw'
_symmetry_space_group_name_H-M   'I -4 2 d'
_cell_angle_alpha                90
_cell_angle_beta                 90
_cell_angle_gamma                90
_cell_length_a                   5.351
_cell_length_b                   5.351
_cell_length_c                   10.480
_cell_volume                     300.076
_exptl_crystal_density_diffrn    4.369
_cod_database_code               9009928
loop_
_symmetry_equiv_pos_as_xyz
x,y,z
1/2+x,1/2+y,1/2+z
1/2-y,-x,3/4+z
-y,1/2-x,1/4+z
y,-x,-z
1/2+y,1/2-x,1/2-z
-x,1/2+y,1/4-z
1/2-x,+y,3/4-z
-x,-y,z
1/2-x,1/2-y,1/2+z
1/2+y,x,3/4+z
+y,1/2+x,1/4+z
-y,x,-z
1/2-y,1/2+x,1/2-z
x,1/2-y,1/4-z
1/2+x,-y,3/4-z
loop_
_atom_site_label
_atom_site_fract_x
_atom_site_fract_y
_atom_site_fract_z
Cu 0.00000 0.00000 0.00000
Ga 0.00000 0.00000 0.50000
S 0.27200 0.25000 0.12500
_journal_paper_doi 10.1016/0038-1098(73)90638-8
