#------------------------------------------------------------------------------
#$Date: 2016-03-24 00:10:55 +0200 (Thu, 24 Mar 2016) $
#$Revision: 179526 $
#$URL: svn://www.crystallography.net/cod/cif/4/34/23/4342343.cif $
#------------------------------------------------------------------------------
#
# This file is available in the Crystallography Open Database (COD),
# http://www.crystallography.net/
#
# All data on this site have been placed in the public domain by the
# contributors.
#
data_4342343
loop_
_publ_author_name
'Yeon, Jeongho'
'Smith, Mark D.'
'Morrison, Gregory'
'Zur Loye, Hans-Conrad'
_publ_section_title
;
 Trivalent Cation-Controlled Phase Space of New U(IV) Fluorides, Na3MU6F30
 (M = Al(3+), Ga(3+), Ti(3+), V(3+), Cr(3+), Fe(3+)): Mild Hydrothermal
 Synthesis Including an in Situ Reduction Step, Structures, Optical, and
 Magnetic Properties.
;
_journal_issue                   4
_journal_name_full               'Inorganic chemistry'
_journal_page_first              2058
_journal_page_last               2066
_journal_paper_doi               10.1021/ic503034t
_journal_volume                  54
_journal_year                    2015
_chemical_formula_moiety         'Cr F30 Na3 U6'
_chemical_formula_sum            'Cr F30 Na3 U6'
_chemical_formula_weight         2119.15
_chemical_name_systematic
; 
 ? 
;
_space_group_crystal_system      trigonal
_space_group_IT_number           165
_space_group_name_Hall           '-P 3 2"c'
_space_group_name_H-M_alt        'P -3 c 1'
_symmetry_space_group_name_Hall  '-P 3 2"c'
_symmetry_space_group_name_H-M   'P -3 c 1'
_audit_creation_method           SHELXL-2014
_cell_angle_alpha                90
_cell_angle_beta                 90
_cell_angle_gamma                120
_cell_formula_units_Z            2
_cell_length_a                   9.8324(6)
_cell_length_b                   9.8324(6)
_cell_length_c                   12.9676(14)
_cell_measurement_reflns_used    2552
_cell_measurement_temperature    100(2)
_cell_measurement_theta_max      32.060
_cell_measurement_theta_min      3.142
_cell_volume                     1085.70(15)
_computing_cell_refinement       'SAINT-Plus Version 6.45 (Bruker, 2001)'
_computing_data_collection       'SMART Version 5.625 (Bruker, 2001)'
_computing_data_reduction        'SAINT-Plus Version 6.45 (Bruker, 2001)'
_computing_molecular_graphics    various
_computing_publication_material  various
_computing_structure_refinement  'SHELXL-2014 (Sheldrick, 2014)'
_computing_structure_solution    'SHELXS97 (Sheldrick, 1997)'
_diffrn_ambient_temperature      100(2)
_diffrn_measured_fraction_theta_full 1.000
_diffrn_measured_fraction_theta_max 0.997
_diffrn_measurement_device_type  'Bruker SMART APEX CCD diffractometer'
_diffrn_measurement_method       'omega and phi scans'
_diffrn_radiation_type           MoK\a
_diffrn_radiation_wavelength     0.71073
_diffrn_reflns_av_R_equivalents  0.0649
_diffrn_reflns_av_unetI/netI     0.0315
_diffrn_reflns_Laue_measured_fraction_full 1.000
_diffrn_reflns_Laue_measured_fraction_max 0.997
_diffrn_reflns_limit_h_max       14
_diffrn_reflns_limit_h_min       -14
_diffrn_reflns_limit_k_max       14
_diffrn_reflns_limit_k_min       -14
_diffrn_reflns_limit_l_max       19
_diffrn_reflns_limit_l_min       -19
_diffrn_reflns_number            15226
_diffrn_reflns_point_group_measured_fraction_full 1.000
_diffrn_reflns_point_group_measured_fraction_max 0.997
_diffrn_reflns_theta_full        25.242
_diffrn_reflns_theta_max         32.513
_diffrn_reflns_theta_min         2.392
_diffrn_source                   'sealed tube'
_exptl_absorpt_coefficient_mu    45.367
_exptl_absorpt_correction_T_max  1.0000
_exptl_absorpt_correction_T_min  0.2998
_exptl_absorpt_correction_type   multi-scan
_exptl_absorpt_process_details   'SADABS Version 2.05 (Bruker, 2001)'
_exptl_crystal_colour            green
_exptl_crystal_density_diffrn    6.482
_exptl_crystal_description       ellipsoid
_exptl_crystal_F_000             1758
_exptl_crystal_size_max          0.100
_exptl_crystal_size_mid          0.050
_exptl_crystal_size_min          0.040
_refine_diff_density_max         2.280
_refine_diff_density_min         -2.044
_refine_diff_density_rms         0.411
_refine_ls_extinction_method     none
_refine_ls_goodness_of_fit_ref   1.153
_refine_ls_hydrogen_treatment    undef
_refine_ls_matrix_type           full
_refine_ls_number_parameters     62
_refine_ls_number_reflns         1317
_refine_ls_number_restraints     0
_refine_ls_restrained_S_all      1.153
_refine_ls_R_factor_all          0.0366
_refine_ls_R_factor_gt           0.0298
_refine_ls_shift/su_max          0.001
_refine_ls_shift/su_mean         0.000
_refine_ls_structure_factor_coef Fsqd
_refine_ls_weighting_details
'w=1/[\s^2^(Fo^2^)+(0.0284P)^2^+7.6997P] where P=(Fo^2^+2Fc^2^)/3'
_refine_ls_weighting_scheme      calc
_refine_ls_wR_factor_gt          0.0643
_refine_ls_wR_factor_ref         0.0666
_reflns_number_gt                1179
_reflns_number_total             1317
_reflns_threshold_expression     'I > 2\s(I)'
_cod_data_source_file            ic503034t_si_002.cif
_cod_data_source_block           Na3CrU6F30
_cod_depositor_comments
'Adding full bibliography for 4342339--4342344.cif.'
_cod_original_cell_volume        1085.70(18)
_cod_database_code               4342343
#BEGIN Tags that were not found in dictionaries:
_shelx_space_group_comment
; 
The symmetry employed for this shelxl refinement is uniquely defined 
by the following loop, which should always be used as a source of 
symmetry information in preference to the above space-group names. 
They are only intended as comments. 
;
_shelx_estimated_absorpt_t_min   0.093
_shelx_estimated_absorpt_t_max   0.264
#END Tags that were not found in dictionaries
loop_
_space_group_symop_operation_xyz
'x, y, z'
'-y, x-y, z'
'-x+y, -x, z'
'y, x, -z+1/2'
'x-y, -y, -z+1/2'
'-x, -x+y, -z+1/2'
'-x, -y, -z'
'y, -x+y, -z'
'x-y, x, -z'
'-y, -x, z-1/2'
'-x+y, y, z-1/2'
'x, x-y, z-1/2'
loop_
_atom_site_label
_atom_site_type_symbol
_atom_site_fract_x
_atom_site_fract_y
_atom_site_fract_z
_atom_site_U_iso_or_equiv
_atom_site_adp_type
_atom_site_occupancy
_atom_site_site_symmetry_order
_atom_site_calc_flag
_atom_site_refinement_flags_posn
_atom_site_refinement_flags_adp
_atom_site_refinement_flags_occupancy
U1 U 0.39969(3) 0.32397(3) 0.39791(2) 0.00621(8) Uani 1 1 d . . .
Cr1 Cr 0.0000 0.0000 0.2500 0.0088(5) Uani 1 6 d S T P
Na1 Na 0.3333 0.6667 0.3377(4) 0.0093(9) Uani 1 3 d S T P
Na2 Na 0.0000 0.0000 0.5000 0.0239(18) Uani 1 6 d S T P
F1 F 0.3031(5) 0.4345(5) 0.2837(3) 0.0120(8) Uani 1 1 d . . .
F2 F 0.1906(5) 0.3066(5) 0.4820(3) 0.0097(8) Uani 1 1 d . . .
F3 F 0.5335(5) 0.4140(5) 0.5516(3) 0.0105(8) Uani 1 1 d . . .
F4 F 0.1805(5) 0.0969(5) 0.3367(3) 0.0111(8) Uani 1 1 d . . .
F5 F 0.5117(5) 0.1712(5) 0.3624(3) 0.0111(8) Uani 1 1 d . . .
loop_
_atom_site_aniso_label
_atom_site_aniso_U_11
_atom_site_aniso_U_22
_atom_site_aniso_U_33
_atom_site_aniso_U_23
_atom_site_aniso_U_13
_atom_site_aniso_U_12
U1 0.00524(12) 0.00605(12) 0.00745(12) 0.00023(7) 0.00000(7) 0.00290(9)
Cr1 0.0077(8) 0.0077(8) 0.0110(11) 0.000 0.000 0.0039(4)
Na1 0.0066(14) 0.0066(14) 0.015(2) 0.000 0.000 0.0033(7)
Na2 0.025(3) 0.025(3) 0.022(4) 0.000 0.000 0.0125(15)
F1 0.020(2) 0.012(2) 0.0088(17) -0.0019(14) -0.0015(15) 0.0119(19)
F2 0.0094(19) 0.010(2) 0.0114(17) 0.0012(14) 0.0012(14) 0.0057(16)
F3 0.012(2) 0.010(2) 0.0118(17) 0.0014(14) -0.0014(15) 0.0066(17)
F4 0.010(2) 0.010(2) 0.0150(18) -0.0009(15) -0.0029(14) 0.0054(17)
F5 0.009(2) 0.012(2) 0.0140(18) 0.0006(15) -0.0009(15) 0.0062(17)
loop_
_atom_type_symbol
_atom_type_description
_atom_type_scat_dispersion_real
_atom_type_scat_dispersion_imag
_atom_type_scat_source
F F 0.0171 0.0103 'International Tables Vol C Tables 4.2.6.8 and 6.1.1.4'
Na Na 0.0362 0.0249 'International Tables Vol C Tables 4.2.6.8 and 6.1.1.4'
Cr Cr 0.3209 0.6236 'International Tables Vol C Tables 4.2.6.8 and 6.1.1.4'
U U -9.6767 9.6646 'International Tables Vol C Tables 4.2.6.8 and 6.1.1.4'
loop_
_geom_angle_atom_site_label_1
_geom_angle_atom_site_label_2
_geom_angle_atom_site_label_3
_geom_angle
_geom_angle_site_symmetry_1
_geom_angle_site_symmetry_3
F2 U1 F5 143.61(15) . 3_665
F2 U1 F1 76.80(14) . .
F5 U1 F1 96.63(16) 3_665 .
F2 U1 F3 86.25(15) . .
F5 U1 F3 71.43(15) 3_665 .
F1 U1 F3 131.66(14) . .
F2 U1 F5 139.42(15) . .
F5 U1 F5 72.1(2) 3_665 .
F1 U1 F5 128.42(14) . .
F3 U1 F5 93.22(15) . .
F2 U1 F4 73.83(15) . .
F5 U1 F4 141.16(15) 3_665 .
F1 U1 F4 80.30(15) . .
F3 U1 F4 137.52(15) . .
F5 U1 F4 79.76(15) . .
F2 U1 F2 70.83(16) . 8_556
F5 U1 F2 123.91(15) 3_665 8_556
F1 U1 F2 139.45(16) . 8_556
F3 U1 F2 70.27(14) . 8_556
F5 U1 F2 70.89(14) . 8_556
F4 U1 F2 67.85(14) . 8_556
F2 U1 F1 129.08(14) . 4
F5 U1 F1 72.91(15) 3_665 4
F1 U1 F1 61.34(18) . 4
F3 U1 F1 143.23(15) . 4
F5 U1 F1 67.31(15) . 4
F4 U1 F1 71.81(15) . 4
F2 U1 F1 125.62(15) 8_556 4
F2 U1 F3 72.59(15) . 7_666
F5 U1 F3 71.81(15) 3_665 7_666
F1 U1 F3 68.09(14) . 7_666
F3 U1 F3 63.66(17) . 7_666
F5 U1 F3 141.79(15) . 7_666
F4 U1 F3 138.00(15) . 7_666
F2 U1 F3 121.82(13) 8_556 7_666
F1 U1 F3 112.55(14) 4 7_666
F2 U1 Na1 67.33(11) . .
F5 U1 Na1 87.62(11) 3_665 .
F1 U1 Na1 32.86(12) . .
F3 U1 Na1 98.86(12) . .
F5 U1 Na1 151.67(12) . .
F4 U1 Na1 106.93(11) . .
F2 U1 Na1 137.38(11) 8_556 .
F1 U1 Na1 88.26(13) 4 .
F3 U1 Na1 35.70(11) 7_666 .
F2 U1 Na2 42.00(11) . .
F5 U1 Na2 166.44(11) 3_665 .
F1 U1 Na2 96.91(11) . .
F3 U1 Na2 99.83(11) . .
F5 U1 Na2 98.73(11) . .
F4 U1 Na2 41.69(10) . .
F2 U1 Na2 42.55(10) 8_556 .
F1 U1 Na2 113.35(11) 4 .
F3 U1 Na2 114.27(10) 7_666 .
Na1 U1 Na2 104.25(2) . .
F2 U1 Na1 158.99(11) . 4
F5 U1 Na1 48.76(11) 3_665 4
F1 U1 Na1 85.33(11) . 4
F3 U1 Na1 114.17(11) . 4
F5 U1 Na1 48.83(11) . 4
F4 U1 Na1 92.50(10) . 4
F2 U1 Na1 119.31(10) 8_556 4
F1 U1 Na1 29.93(11) 4 4
F3 U1 Na1 110.99(10) 7_666 4
Na1 U1 Na1 102.90(3) . 4
Na2 U1 Na1 131.946(16) . 4
F4 Cr1 F4 176.1(3) . 6
F4 Cr1 F4 94.1(3) . 5
F4 Cr1 F4 88.73(18) 6 5
F4 Cr1 F4 88.73(18) . 2
F4 Cr1 F4 88.6(3) 6 2
F4 Cr1 F4 176.1(3) 5 2
F4 Cr1 F4 88.73(18) . 3
F4 Cr1 F4 94.1(3) 6 3
F4 Cr1 F4 88.6(3) 5 3
F4 Cr1 F4 88.73(18) 2 3
F4 Cr1 F4 88.6(3) . 4
F4 Cr1 F4 88.73(18) 6 4
F4 Cr1 F4 88.73(18) 5 4
F4 Cr1 F4 94.1(3) 2 4
F4 Cr1 F4 176.1(3) 3 4
F4 Cr1 Na2 53.84(12) . .
F4 Cr1 Na2 126.16(12) 6 .
F4 Cr1 Na2 126.16(12) 5 .
F4 Cr1 Na2 53.84(12) 2 .
F4 Cr1 Na2 53.84(12) 3 .
F4 Cr1 Na2 126.16(12) 4 .
F4 Cr1 Na2 126.16(12) . 4
F4 Cr1 Na2 53.84(12) 6 4
F4 Cr1 Na2 53.84(12) 5 4
F4 Cr1 Na2 126.16(12) 2 4
F4 Cr1 Na2 126.16(12) 3 4
F4 Cr1 Na2 53.84(12) 4 4
Na2 Cr1 Na2 180.0 . 4
F1 Na1 F1 110.85(14) 3_565 2_665
F1 Na1 F1 110.85(14) 3_565 .
F1 Na1 F1 110.85(14) 2_665 .
F1 Na1 F3 89.85(16) 3_565 8_566
F1 Na1 F3 70.14(15) 2_665 8_566
F1 Na1 F3 156.1(2) . 8_566
F1 Na1 F3 70.14(15) 3_565 9_556
F1 Na1 F3 156.1(2) 2_665 9_556
F1 Na1 F3 89.85(16) . 9_556
F3 Na1 F3 86.1(2) 8_566 9_556
F1 Na1 F3 156.1(2) 3_565 7_666
F1 Na1 F3 89.85(16) 2_665 7_666
F1 Na1 F3 70.14(15) . 7_666
F3 Na1 F3 86.1(2) 8_566 7_666
F3 Na1 F3 86.1(2) 9_556 7_666
F1 Na1 U1 136.72(12) 3_565 .
F1 Na1 U1 107.17(12) 2_665 .
F1 Na1 U1 33.58(11) . .
F3 Na1 U1 122.56(17) 8_566 .
F3 Na1 U1 83.26(12) 9_556 .
F3 Na1 U1 37.04(10) 7_666 .
F1 Na1 U1 107.17(12) 3_565 2_665
F1 Na1 U1 33.58(11) 2_665 2_665
F1 Na1 U1 136.72(12) . 2_665
F3 Na1 U1 37.04(10) 8_566 2_665
F3 Na1 U1 122.56(17) 9_556 2_665
F3 Na1 U1 83.26(12) 7_666 2_665
U1 Na1 U1 115.93(4) . 2_665
F1 Na1 U1 33.58(11) 3_565 3_565
F1 Na1 U1 136.72(12) 2_665 3_565
F1 Na1 U1 107.17(12) . 3_565
F3 Na1 U1 83.26(12) 8_566 3_565
F3 Na1 U1 37.04(10) 9_556 3_565
F3 Na1 U1 122.56(17) 7_666 3_565
U1 Na1 U1 115.93(4) . 3_565
U1 Na1 U1 115.93(4) 2_665 3_565
F1 Na1 U1 32.03(12) 3_565 5_565
F1 Na1 U1 96.66(16) 2_665 5_565
F1 Na1 U1 91.22(15) . 5_565
F3 Na1 U1 112.53(11) 8_566 5_565
F3 Na1 U1 94.57(11) 9_556 5_565
F3 Na1 U1 161.36(13) 7_666 5_565
U1 Na1 U1 124.47(7) . 5_565
U1 Na1 U1 111.55(6) 2_665 5_565
U1 Na1 U1 62.30(3) 3_565 5_565
F1 Na1 U1 91.22(15) 3_565 6_665
F1 Na1 U1 32.03(12) 2_665 6_665
F1 Na1 U1 96.66(16) . 6_665
F3 Na1 U1 94.57(11) 8_566 6_665
F3 Na1 U1 161.36(13) 9_556 6_665
F3 Na1 U1 112.53(11) 7_666 6_665
U1 Na1 U1 111.55(6) . 6_665
U1 Na1 U1 62.30(3) 2_665 6_665
U1 Na1 U1 124.47(7) 3_565 6_665
U1 Na1 U1 67.94(7) 5_565 6_665
F1 Na1 U1 96.66(16) 3_565 4
F1 Na1 U1 91.22(15) 2_665 4
F1 Na1 U1 32.03(12) . 4
F3 Na1 U1 161.36(13) 8_566 4
F3 Na1 U1 112.53(11) 9_556 4
F3 Na1 U1 94.57(11) 7_666 4
U1 Na1 U1 62.30(3) . 4
U1 Na1 U1 124.47(7) 2_665 4
U1 Na1 U1 111.55(6) 3_565 4
U1 Na1 U1 67.94(7) 5_565 4
U1 Na1 U1 67.94(7) 6_665 4
F4 Na2 F4 180.0 9_556 3
F4 Na2 F4 61.20(14) 9_556 8_556
F4 Na2 F4 118.80(14) 3 8_556
F4 Na2 F4 118.80(14) 9_556 2
F4 Na2 F4 61.20(14) 3 2
F4 Na2 F4 180.00(10) 8_556 2
F4 Na2 F4 61.20(14) 9_556 7_556
F4 Na2 F4 118.80(14) 3 7_556
F4 Na2 F4 61.20(14) 8_556 7_556
F4 Na2 F4 118.80(14) 2 7_556
F4 Na2 F4 118.80(15) 9_556 .
F4 Na2 F4 61.20(14) 3 .
F4 Na2 F4 118.80(14) 8_556 .
F4 Na2 F4 61.20(14) 2 .
F4 Na2 F4 180.0(2) 7_556 .
F4 Na2 F2 120.29(12) 9_556 7_556
F4 Na2 F2 59.71(12) 3 7_556
F4 Na2 F2 74.48(13) 8_556 7_556
F4 Na2 F2 105.52(13) 2 7_556
F4 Na2 F2 63.18(13) 7_556 7_556
F4 Na2 F2 116.82(13) . 7_556
F4 Na2 F2 74.48(13) 9_556 8_556
F4 Na2 F2 105.52(13) 3 8_556
F4 Na2 F2 63.18(13) 8_556 8_556
F4 Na2 F2 116.82(13) 2 8_556
F4 Na2 F2 120.29(12) 7_556 8_556
F4 Na2 F2 59.71(12) . 8_556
F2 Na2 F2 119.23(2) 7_556 8_556
F4 Na2 F2 105.52(13) 9_556 2
F4 Na2 F2 74.48(13) 3 2
F4 Na2 F2 116.82(13) 8_556 2
F4 Na2 F2 63.18(13) 2 2
F4 Na2 F2 59.71(12) 7_556 2
F4 Na2 F2 120.29(12) . 2
F2 Na2 F2 60.77(2) 7_556 2
F2 Na2 F2 180.0 8_556 2
F4 Na2 F2 63.18(13) 9_556 9_556
F4 Na2 F2 116.82(13) 3 9_556
F4 Na2 F2 120.29(12) 8_556 9_556
F4 Na2 F2 59.71(12) 2 9_556
F4 Na2 F2 74.48(13) 7_556 9_556
F4 Na2 F2 105.52(13) . 9_556
F2 Na2 F2 119.23(2) 7_556 9_556
F2 Na2 F2 119.23(2) 8_556 9_556
F2 Na2 F2 60.77(2) 2 9_556
F4 Na2 F2 116.82(13) 9_556 3
F4 Na2 F2 63.18(13) 3 3
F4 Na2 F2 59.71(12) 8_556 3
F4 Na2 F2 120.29(12) 2 3
F4 Na2 F2 105.52(13) 7_556 3
F4 Na2 F2 74.48(13) . 3
F2 Na2 F2 60.77(2) 7_556 3
F2 Na2 F2 60.77(2) 8_556 3
F2 Na2 F2 119.23(2) 2 3
F2 Na2 F2 180.0 9_556 3
F4 Na2 F2 59.71(12) 9_556 .
F4 Na2 F2 120.29(12) 3 .
F4 Na2 F2 105.52(13) 8_556 .
F4 Na2 F2 74.48(13) 2 .
F4 Na2 F2 116.82(13) 7_556 .
F4 Na2 F2 63.18(13) . .
F2 Na2 F2 180.0 7_556 .
F2 Na2 F2 60.77(2) 8_556 .
F2 Na2 F2 119.23(2) 2 .
F2 Na2 F2 60.77(2) 9_556 .
F2 Na2 F2 119.23(2) 3 .
Na1 F1 U1 113.6(2) . .
Na1 F1 U1 118.0(2) . 4
U1 F1 U1 118.55(18) . 4
U1 F2 U1 152.1(2) . 9_556
U1 F2 Na2 103.21(15) . .
U1 F2 Na2 100.35(14) 9_556 .
U1 F3 Na1 135.3(2) . 7_666
U1 F3 U1 116.34(16) . 7_666
Na1 F3 U1 107.26(17) 7_666 7_666
Cr1 F4 U1 149.6(2) . .
Cr1 F4 Na2 90.16(16) . .
U1 F4 Na2 101.93(15) . .
U1 F5 U1 153.1(2) 2_655 .
loop_
_geom_bond_atom_site_label_1
_geom_bond_atom_site_label_2
_geom_bond_distance
_geom_bond_site_symmetry_2
U1 F2 2.256(4) .
U1 F5 2.285(4) 3_665
U1 F1 2.305(4) .
U1 F3 2.306(4) .
U1 F5 2.310(4) .
U1 F4 2.334(4) .
U1 F2 2.361(4) 8_556
U1 F1 2.403(4) 4
U1 F3 2.409(4) 7_666
U1 Na1 3.8193(10) .
U1 Na2 3.8504(3) .
U1 Na1 3.999(3) 4
Cr1 F4 1.906(4) .
Cr1 F4 1.906(4) 6
Cr1 F4 1.906(4) 5
Cr1 F4 1.906(4) 2
Cr1 F4 1.906(4) 3
Cr1 F4 1.906(4) 4
Cr1 Na2 3.2419(4) .
Cr1 Na2 3.2419(4) 4
Na1 F1 2.261(4) 3_565
Na1 F1 2.261(4) 2_665
Na1 F1 2.261(4) .
Na1 F3 2.334(5) 8_566
Na1 F3 2.334(5) 9_556
Na1 F3 2.334(5) 7_666
Na1 U1 3.8193(10) 2_665
Na1 U1 3.8193(10) 3_565
Na1 U1 3.999(3) 5_565
Na1 U1 3.999(3) 6_665
Na1 U1 3.999(3) 4
Na2 F4 2.617(4) 9_556
Na2 F4 2.617(4) 3
Na2 F4 2.617(4) 8_556
Na2 F4 2.617(4) 2
Na2 F4 2.617(4) 7_556
Na2 F4 2.617(4) .
Na2 F2 2.647(4) 7_556
Na2 F2 2.647(4) 8_556
Na2 F2 2.647(4) 2
Na2 F2 2.647(4) 9_556
Na2 F2 2.647(4) 3
Na2 F2 2.647(4) .
F1 U1 2.403(4) 4
F2 U1 2.361(4) 9_556
F3 Na1 2.334(5) 7_666
F3 U1 2.409(4) 7_666
F5 U1 2.285(4) 2_655
