#------------------------------------------------------------------------------
#$Date: 2016-02-16 14:49:47 +0200 (Tue, 16 Feb 2016) $
#$Revision: 176465 $
#$URL: svn://www.crystallography.net/cod/cif/9/00/33/9003376.cif $
#------------------------------------------------------------------------------
#
# This file is available in the Crystallography Open Database (COD),
# http://www.crystallography.net/. The original data for this entry
# were provided the American Mineralogist Crystal Structure Database,
# http://rruff.geo.arizona.edu/AMS/amcsd.php
#
# The file may be used within the scientific community so long as
# proper attribution is given to the journal article from which the
# data were obtained.
#
data_9003376
loop_
_publ_author_name
'Antao, S. M.'
'Hassan, I.'
'Parise, J. B.'
_publ_section_title
;
 Tugtupite: High-temperature structures obtained from in situ synchrotron
 diffraction and Rietveld refinements
 T = 934 C
;
_journal_name_full               'American Mineralogist'
_journal_page_first              492
_journal_page_last               497
_journal_volume                  89
_journal_year                    2004
_chemical_formula_sum            'Al Be Cl Na4 O12 Si4'
_chemical_name_mineral           Tugtupite
_space_group_IT_number           82
_symmetry_space_group_name_Hall  'I -4'
_symmetry_space_group_name_H-M   'I -4'
_cell_angle_alpha                90
_cell_angle_beta                 90
_cell_angle_gamma                90
_cell_length_a                   8.71168
_cell_length_b                   8.71168
_cell_length_c                   8.9214
_cell_volume                     677.075
_diffrn_ambient_temperature      1207.15
_exptl_crystal_density_diffrn    2.294
_cod_original_formula_sum        'Al Be Si4 O12 Na4 Cl'
_cod_database_code               9003376
loop_
_symmetry_equiv_pos_as_xyz
x,y,z
1/2+x,1/2+y,1/2+z
y,-x,-z
1/2+y,1/2-x,1/2-z
-x,-y,z
1/2-x,1/2-y,1/2+z
-y,x,-z
1/2-y,1/2+x,1/2-z
loop_
_atom_site_label
_atom_site_fract_x
_atom_site_fract_y
_atom_site_fract_z
_atom_site_U_iso_or_equiv
Al 0.00000 0.50000 0.75000 0.02100
Be 0.00000 0.50000 0.25000 0.01500
Si 0.01170 0.25400 0.49490 0.02100
O1 0.14920 0.13890 0.45110 0.02820
O2 0.34320 0.03130 0.65270 0.02820
O3 0.43630 0.14620 0.14010 0.02820
Na 0.16340 0.19860 0.18360 0.06980
Cl 0.00000 0.00000 0.00000 0.09400
